LAMMPS (29 Sep 2021)
  using 1 OpenMP thread(s) per MPI task
Reading data file ...
  orthogonal box = (-0.31439309 -0.13068593 0.0000000) to (101.61346 101.42975 611.33702)
  3 by 2 by 16 MPI processor grid
  reading atoms ...
  458562 atoms
  reading velocities ...
  458562 velocities
  read_data CPU = 4.211 seconds
229280 atoms in group g_left
229282 atoms in group g_right

CITE-CITE-CITE-CITE-CITE-CITE-CITE-CITE-CITE-CITE-CITE-CITE-CITE

Your simulation uses code contributions which should be cited:
- @article{cjiang2012
The log file lists these citations in BibTeX format.

CITE-CITE-CITE-CITE-CITE-CITE-CITE-CITE-CITE-CITE-CITE-CITE-CITE

Neighbor list info ...
  update every 1 steps, delay 10 steps, check yes
  max neighbors/atom: 2000, page size: 100000
  master list distance cutoff = 8.28721
  ghost atom cutoff = 8.28721
  binsize = 4.143605, bins = 25 25 148
  3 neighbor lists, perpetual/occasional/extra = 3 0 0
  (1) pair eam/alloy, perpetual, skip from (3)
      attributes: half, newton on
      pair build: skip
      stencil: none
      bin: none
  (2) pair edip/multi, perpetual
      attributes: full, newton on
      pair build: full/bin/atomonly
      stencil: full/bin/3d
      bin: standard
  (3) neighbor class addition, perpetual, half/full from (2)
      attributes: half, newton on
      pair build: halffull/newton
      stencil: none
      bin: none
Setting up Verlet run ...
  Unit style    : metal
  Current step  : 0
  Time step     : 0.00025
Per MPI rank memory allocation (min/avg/max) = 8.813 | 12.37 | 18.51 Mbytes
Step Time Temp Press PotEng KinEng TotEng Volume 
       0            0    1965.9355    16596.724   -2005325.2    116528.19     -1888797    6328461.3 
     100        0.025    1965.6326    16579.038   -2005313.3    116510.24   -1888803.1    6323285.4 
     200         0.05    1966.1786    16711.994   -2005347.1     116542.6   -1888804.5    6318109.4 
     300        0.075    1965.6258    16493.255   -2005316.6    116509.84   -1888806.8    6312933.5 
     400          0.1    1965.6915    16648.484   -2005326.2    116513.73   -1888812.5    6307757.6 
     500        0.125    1965.5329    16506.491   -2005323.9    116504.33   -1888819.6    6302581.7 
     600         0.15    1965.9368    16840.627     -2005347    116528.27   -1888818.7    6297405.8 
     700        0.175     1965.348    16956.933   -2005302.1    116493.37   -1888808.8    6292229.8 
     800          0.2    1966.0968    16655.036   -2005338.7    116537.76   -1888800.9    6287053.9 
     900        0.225    1965.9295    16872.903   -2005327.4    116527.84   -1888799.5      6281878 
    1000         0.25    1965.6908     17000.99   -2005314.5    116513.69   -1888800.9    6276702.1 
    1100        0.275    1966.2292    16924.945   -2005344.5     116545.6   -1888798.9    6271526.2 
    1200          0.3    1966.2345    16875.632   -2005339.8    116545.92   -1888793.9    6266350.2 
    1300        0.325    1966.1248    16756.747   -2005336.3    116539.42   -1888796.9    6261174.3 
    1400         0.35    1965.5905    17035.569   -2005315.2    116507.75   -1888807.4    6255998.4 
    1500        0.375    1965.5179    16984.341   -2005318.2    116503.44   -1888814.8    6250822.5 
    1600          0.4     1965.442    17088.839   -2005312.9    116498.94     -1888814    6245646.6 
    1700        0.425    1965.8706    16740.947   -2005333.2    116524.35   -1888808.8    6240470.7 
    1800         0.45    1965.6461    16895.932     -2005315    116511.04   -1888803.9    6235294.7 
    1900        0.475    1965.7944    16972.027   -2005319.9    116519.83   -1888800.1    6230118.8 
    2000          0.5    1966.0332    17121.518   -2005333.4    116533.98   -1888799.4    6224942.9 
    2100        0.525    1965.8542     17129.48   -2005324.4    116523.38     -1888801      6219767 
    2200         0.55    1965.8481    16909.766   -2005326.3    116523.02   -1888803.3    6214591.1 
    2300        0.575     1966.165    17068.538   -2005342.4     116541.8   -1888800.6    6209415.1 
    2400          0.6     1965.633    17227.737   -2005302.4    116510.26   -1888792.2    6204239.2 
    2500        0.625    1966.3874    17044.947   -2005339.9    116554.98   -1888784.9    6199063.3 
    2600         0.65    1966.4514    17112.584   -2005344.7    116558.77   -1888785.9    6193887.4 
    2700        0.675    1966.0666     16994.25   -2005327.9    116535.97   -1888791.9    6188711.5 
    2800          0.7     1965.735    17028.542   -2005310.5    116516.31   -1888794.2    6183535.6 
    2900        0.725    1965.9419    17009.843   -2005323.9    116528.57   -1888795.3    6178359.6 
    3000         0.75    1966.3722     17179.57   -2005352.8    116554.08   -1888798.8    6173183.7 
    3100        0.775    1965.8978    17011.664   -2005330.5    116525.96   -1888804.6    6168007.8 
    3200          0.8    1965.8132    17065.396   -2005333.8    116520.95   -1888812.9    6162831.9 
    3300        0.825    1965.3211    17120.586   -2005312.8    116491.78     -1888821      6157656 
    3400         0.85    1965.4037    17241.961   -2005322.3    116496.67   -1888825.6      6152480 
    3500        0.875    1965.4256    17162.527   -2005326.6    116497.97   -1888828.7    6147304.1 
    3600          0.9    1965.1002    16984.912   -2005310.3    116478.69   -1888831.6    6142128.2 
    3700        0.925    1965.4816    17100.348     -2005334    116501.29   -1888832.7    6136952.3 
    3800         0.95      1966.15    17199.596   -2005369.9    116540.91     -1888829    6131776.4 
    3900        0.975    1965.4944    17326.942   -2005326.7    116502.05   -1888824.7    6126600.4 
    4000            1    1965.4034    17054.517   -2005321.3    116496.65   -1888824.6    6121424.5 
    4100        1.025    1965.6284    17173.287   -2005334.1    116509.99   -1888824.1    6116248.6 
    4200         1.05    1966.0258    17370.534   -2005355.9    116533.55   -1888822.4    6111072.7 
    4300        1.075    1965.9331    17220.493   -2005348.5    116528.05   -1888820.5    6105896.8 
    4400          1.1    1967.3311    17034.759   -2005430.6    116610.92   -1888819.7    6100720.9 
    4500        1.125    1967.9731    17149.916     -2005470    116648.97     -1888821    6095544.9 
    4600         1.15     1968.602    17292.711     -2005512    116686.25   -1888825.8      6090369 
    4700        1.175    1966.8393    17732.337   -2005411.8    116581.76     -1888830    6085193.1 
    4800          1.2    1962.1565    19103.492   -2005136.7     116304.2   -1888832.5    6080017.2 
    4900        1.225    1955.8422    21389.432     -2004763    115929.93   -1888833.1    6074841.3 
    5000         1.25    1947.2279    23706.245   -2004251.1    115419.33   -1888831.8    6069665.3 
    5100        1.275    1937.9799    26399.879   -2003696.2    114871.17     -1888825    6064489.4 
    5200          1.3    1928.9633    29781.394   -2003151.9    114336.72   -1888815.1    6059313.5 
    5300        1.325    1921.3382    32922.546   -2002696.3    113884.75   -1888811.5    6054137.6 
    5400         1.35    1911.2944    35487.762   -2002105.2    113289.41   -1888815.8    6048961.7 
    5500        1.375     1902.441    37284.206     -2001588    112764.64   -1888823.4    6043785.7 
    5600          1.4    1892.7723    39408.446   -2001016.8    112191.54   -1888825.2    6038609.8 
    5700        1.425    1883.8661    41142.037   -2000483.7    111663.64     -1888820    6033433.9 
    5800         1.45    1873.5511    43075.997   -1999865.6    111052.23   -1888813.3      6028258 
    5900        1.475    1863.9546    44762.347   -1999298.5    110483.42   -1888815.1    6023082.1 
    6000          1.5    1854.2126    46170.514   -1998730.6    109905.97   -1888824.6    6017906.2 
    6100        1.525    1843.3194    47813.228   -1998088.3    109260.29   -1888828.1    6012730.2 
    6200         1.55    1832.3265    49462.852   -1997432.7     108608.7     -1888824    6007554.3 
    6300        1.575    1820.9876    51095.713   -1996757.6     107936.6     -1888821    6002378.4 
    6400          1.6    1809.8497    52875.649     -1996104    107276.42   -1888827.6    5997202.5 
    6500        1.625    1798.3289    54844.149   -1995426.5    106593.54     -1888833    5992026.6 
    6600         1.65    1787.0352    56868.027   -1994752.1    105924.12     -1888828    5986850.6 
    6700        1.675    1775.8554    58595.273   -1994083.8    105261.45   -1888822.3    5981674.7 
    6800          1.7     1763.164    60992.441   -1993334.1    104509.18   -1888824.9    5976498.8 
    6900        1.725    1751.6268    62758.199   -1992659.3    103825.33     -1888834    5971322.9 
    7000         1.75    1739.7778    64586.621   -1991962.8       103123   -1888839.8      5966147 
    7100        1.775    1727.8629     66558.91   -1991254.6    102416.76   -1888837.8    5960971.1 
    7200          1.8     1715.936    68582.906   -1990549.8    101709.81     -1888840    5955795.1 
    7300        1.825     1703.882    70603.744   -1989846.4    100995.32   -1888851.1    5950619.2 
    7400         1.85    1692.1717    72308.027   -1989157.4    100301.21   -1888856.2    5945443.3 
    7500        1.875    1679.9549    74195.922   -1988421.3    99577.078   -1888844.2    5940267.4 
    7600          1.9    1667.4645    76110.171   -1987665.4    98836.728   -1888828.7    5935091.5 
    7700        1.925    1655.4077      77815.3   -1986951.3    98122.078   -1888829.2    5929915.5 
    7800         1.95    1644.1077    79531.209   -1986292.8    97452.284   -1888840.5    5924739.6 
    7900        1.975    1631.5775    81189.412   -1985553.4    96709.574   -1888843.8    5919563.7 
    8000            2    1619.2441    82872.244   -1984815.3    95978.528   -1888836.8    5914387.8 
    8100        2.025    1606.9903    84846.423   -1984085.7    95252.199   -1888833.5    5909211.9 
    8200         2.05    1595.0895    86528.703     -1983387    94546.793   -1888840.2    5904035.9 
    8300        2.075    1582.5575    88113.267   -1982649.3     93803.98   -1888845.4      5898860 
    8400          2.1    1571.9258    89612.583     -1982016    93173.797   -1888842.2    5893684.1 
    8500        2.125    1562.1628    91313.448     -1981431    92595.106   -1888835.9    5888508.2 
    8600         2.15    1555.7031    92575.298   -1981046.9    92212.216   -1888834.7    5883332.3 
    8700        2.175    1549.3588    93606.001   -1980673.3    91836.168   -1888837.2    5878156.4 
    8800          2.2    1545.2796    93855.747   -1980432.9    91594.377   -1888838.5    5872980.4 
    8900        2.225    1541.3371    94847.653   -1980198.1    91360.694   -1888837.4    5867804.5 
    9000         2.25    1537.0971      95336.1   -1979944.5    91109.372   -1888835.2    5862628.6 
    9100        2.275    1533.6362     95822.06   -1979739.6     90904.23   -1888835.3    5857452.7 
    9200          2.3    1531.1351    96753.344   -1979591.7    90755.986   -1888835.7    5852276.8 
    9300        2.325    1529.6166    97402.552   -1979503.3    90665.978   -1888837.4    5847100.8 
    9400         2.35     1528.039    97647.754   -1979414.9    90572.468   -1888842.5    5841924.9 
    9500        2.375    1526.3906    98831.601   -1979319.5    90474.758   -1888844.8      5836749 
    9600          2.4      1525.01    99579.921   -1979234.6    90392.927   -1888841.7    5831573.1 
    9700        2.425    1522.4984    100289.02   -1979081.6    90244.055   -1888837.5    5826397.2 
    9800         2.45    1521.3332    100481.66   -1979013.6    90174.987   -1888838.6    5821221.2 
    9900        2.475    1519.9024    100795.36     -1978937    90090.181   -1888846.8    5816045.3 
   10000          2.5     1518.373    101506.06   -1978850.3    89999.525   -1888850.8    5810869.4 
   10100        2.525    1517.7802     101897.1   -1978808.3     89964.39   -1888843.9    5805693.5 
   10200         2.55    1517.7642    102753.07   -1978797.6     89963.44   -1888834.2    5800517.6 
   10300        2.575    1516.4823    103109.92   -1978724.4    89887.457     -1888837    5795341.7 
   10400          2.6    1515.4505    103394.52     -1978674    89826.302   -1888847.7    5790165.7 
   10500        2.625    1514.2227    103787.76   -1978603.9    89753.522   -1888850.4    5784989.8 
   10600         2.65    1513.6744    104420.01   -1978567.7    89721.025   -1888846.7    5779813.9 
   10700        2.675    1512.4902    104787.71   -1978500.7    89650.833   -1888849.9      5774638 
   10800          2.7    1511.0668    105001.83   -1978427.7    89566.463   -1888861.2    5769462.1 
   10900        2.725    1509.5514    104987.37   -1978344.6    89476.639     -1888868    5764286.1 
   11000         2.75    1509.6941    105128.62   -1978352.1    89485.095     -1888867    5759110.2 
   11100        2.775    1508.2256    105405.39   -1978261.9    89398.051   -1888863.8    5753934.3 
   11200          2.8     1506.654    105591.13     -1978169    89304.899   -1888864.1    5748758.4 
   11300        2.825    1506.0998    104836.46   -1978141.9    89272.049   -1888869.8    5743582.5 
   11400         2.85    1504.8424    104661.46   -1978067.1    89197.516   -1888869.6    5738406.6 
   11500        2.875    1503.4289     103921.9   -1977977.2    89113.738   -1888863.4    5733230.6 
   11600          2.9    1501.8279    103387.27   -1977879.9    89018.837     -1888861    5728054.7 
   11700        2.925    1500.7612       102443   -1977815.9     88955.61   -1888860.3    5722878.8 
   11800         2.95    1498.5673    101841.81   -1977682.7    88825.573   -1888857.1    5717702.9 
   11900        2.975    1494.9399    101344.82   -1977466.6    88610.564   -1888856.1      5712527 
   12000            3    1492.5292    100903.16   -1977326.5    88467.669   -1888858.8      5707351 
   12100        3.025    1487.4257    101133.76     -1977029    88165.169   -1888863.8    5702175.1 
   12200         3.05     1482.386    101146.76   -1976732.4    87866.443     -1888866    5696999.2 
   12300        3.075    1476.9349    101241.59   -1976406.9    87543.342   -1888863.5    5691823.3 
   12400          3.1     1469.112    101372.42   -1975940.2    87079.647   -1888860.5    5686647.4 
   12500        3.125    1460.7444    101796.61   -1975444.6    86583.668   -1888860.9    5681471.4 
   12600         3.15    1451.7915    102393.99   -1974911.3    86052.998   -1888858.3    5676295.5 
   12700        3.175    1441.1809    102671.83   -1974276.2    85424.068   -1888852.1    5671119.6 
   12800          3.2    1430.3596    103508.96   -1973632.2    84782.653   -1888849.6    5665943.7 
   12900        3.225    1418.6568    104760.41   -1972941.2    84088.985   -1888852.2    5660767.8 
   13000         3.25    1407.0144    105577.22   -1972251.8    83398.897   -1888852.9    5655591.9 
   13100        3.275    1394.0556    106243.72   -1971482.3     82630.78   -1888851.5    5650415.9 
   13200          3.3    1381.4954    107405.92   -1970734.7    81886.291   -1888848.4      5645240 
   13300        3.325         1368    108244.15   -1969930.5     81086.37   -1888844.1    5640064.1 
   13400         3.35    1354.1765    109669.44   -1969108.7    80267.001   -1888841.7    5634888.2 
   13500        3.375    1340.5778    110847.92   -1968303.8    79460.953   -1888842.8    5629712.3 
   13600          3.4    1326.5159    112188.39   -1967470.6    78627.454   -1888843.1    5624536.3 
   13700        3.425    1311.8819    113399.91   -1966599.6    77760.045   -1888839.6    5619360.4 
   13800         3.45    1296.2836     114946.7   -1965672.4    76835.473   -1888836.9    5614184.5 
   13900        3.475    1281.3036    116275.76   -1964786.1    75947.555   -1888838.6    5609008.6 
   14000          3.5    1266.8089    118155.36   -1963932.2    75088.404   -1888843.8    5603832.7 
   14100        3.525    1252.0753    119277.72   -1963063.1     74215.09   -1888848.1    5598656.7 
   14200         3.55    1236.7083    121168.95   -1962152.6    73304.226   -1888848.4    5593480.8 
   14300        3.575    1221.2505    122573.92   -1961237.5    72387.987   -1888849.5    5588304.9 
   14400          3.6    1206.8121    123571.13   -1960385.3    71532.172   -1888853.1      5583129 
   14500        3.625    1191.9933    125305.92   -1959508.7    70653.809   -1888854.9    5577953.1 
   14600         3.65    1177.0328    126646.67   -1958622.1    69767.042   -1888855.1    5572777.2 
   14700        3.675    1162.9225    127840.57   -1957784.9    68930.673   -1888854.3    5567601.2 
   14800          3.7    1148.5794     129515.1   -1956933.8    68080.509   -1888853.3    5562425.3 
   14900        3.725    1133.8393    130770.98   -1956058.4    67206.805   -1888851.6    5557249.4 
   15000         3.75    1122.7752    131879.47   -1955400.4    66550.997   -1888849.4    5552073.5 
   15100        3.775    1110.5503    133261.67   -1954672.9     65826.38   -1888846.5    5546897.6 
   15200          3.8    1099.5064    134373.44   -1954014.8    65171.768     -1888843    5541721.6 
   15300        3.825    1089.7722    135337.59   -1953435.9     64594.79   -1888841.1    5536545.7 
   15400         3.85    1084.1794    136144.44   -1953105.2    64263.282   -1888841.9    5531369.8 
   15500        3.875    1076.2293    137297.13   -1952636.9    63792.048   -1888844.9    5526193.9 
   15600          3.9    1072.6517    138597.57   -1952427.4    63579.994   -1888847.4      5521018 
   15700        3.925    1066.8822    139825.48   -1952086.3    63238.015   -1888848.3    5515842.1 
   15800         3.95    1064.2071     140857.9   -1951929.6     63079.45   -1888850.1    5510666.1 
   15900        3.975    1061.6217    141599.05   -1951775.9    62926.205   -1888849.7    5505490.2 
   16000            4    1060.0528    142739.98   -1951677.6    62833.209   -1888844.4    5500314.3 
   16100        4.025    1058.5066    143777.72     -1951581    62741.559   -1888839.5    5495138.4 
   16200         4.05    1057.7223    144688.51   -1951532.7    62695.074   -1888837.6    5489962.5 
   16300        4.075    1056.4667    145481.73   -1951460.4    62620.647   -1888839.7    5484786.5 
   16400          4.1    1057.3846    146910.22   -1951518.6    62675.054   -1888843.5    5479610.6 
   16500        4.125    1056.6414    147865.66   -1951474.2    62631.007   -1888843.2    5474434.7 
   16600         4.15    1056.0565    148791.28   -1951436.6    62596.336   -1888840.3    5469258.8 
   16700        4.175    1055.1485    149643.33   -1951379.2    62542.518   -1888836.7    5464082.9 
   16800          4.2     1055.908    150690.06   -1951422.1    62587.535   -1888834.6    5458906.9 
   16900        4.225    1055.6931    151524.18   -1951406.2    62574.797   -1888831.4      5453731 
   17000         4.25    1055.6708    152403.34   -1951400.5    62573.474     -1888827    5448555.1 
   17100        4.275    1055.3482    153424.68   -1951377.9    62554.352   -1888823.6    5443379.2 
   17200          4.3    1055.7783    154402.84     -1951400    62579.843   -1888820.2    5438203.3 
   17300        4.325    1055.7005    154861.43   -1951391.8    62575.234   -1888816.6    5433027.4 
   17400         4.35    1056.3921    155706.83   -1951430.7    62616.229   -1888814.5    5427851.4 
   17500        4.375    1056.3749    156510.72   -1951432.2    62615.211     -1888817    5422675.5 
   17600          4.4    1056.9401     157554.1   -1951469.9    62648.708   -1888821.2    5417499.6 
   17700        4.425     1056.945     158938.6   -1951470.8    62649.002   -1888821.8    5412323.7 
   17800         4.45    1056.3312    159783.96   -1951431.2    62612.619   -1888818.6    5407147.8 
   17900        4.475    1056.2765    161465.71   -1951424.3    62609.376     -1888815    5401971.8 
   18000          4.5    1056.1581    162507.57     -1951418    62602.356   -1888815.6    5396795.9 
   18100        4.525    1055.3179    164230.98   -1951372.9    62552.557   -1888820.4      5391620 
   18200         4.55    1053.6632    165511.48   -1951274.8    62454.477   -1888820.3    5386444.1 
   18300        4.575    1052.9999    167727.97   -1951231.3    62415.162   -1888816.2    5381268.2 
   18400          4.6    1050.8188    169441.33   -1951099.5     62285.88   -1888813.6    5376092.2 
   18500        4.625    1048.2056     171496.6   -1950942.9    62130.984   -1888811.9    5370916.3 
   18600         4.65    1045.4292    173390.87   -1950775.8    61966.419   -1888809.4    5365740.4 
   18700        4.675    1041.3976    175504.82   -1950533.3    61727.449   -1888805.8    5360564.5 
   18800          4.7    1037.6459     178005.7   -1950309.4     61505.07   -1888804.3    5355388.6 
   18900        4.725    1031.2458    180652.11   -1949935.2    61125.717   -1888809.5    5350212.7 
   19000         4.75    1023.9232    183506.27   -1949511.1    60691.677   -1888819.4    5345036.7 
   19100        4.775    1016.1648    186393.87   -1949058.7    60231.806   -1888826.9    5339860.8 
   19200          4.8    1007.5824    189758.83   -1948552.2    59723.099   -1888829.1    5334684.9 
   19300        4.825    996.22277    192594.18   -1947874.3    59049.771   -1888824.5      5329509 
   19400         4.85     986.3815    195521.69   -1947285.8    58466.443   -1888819.4    5324333.1 
   19500        4.875    972.93097    198528.31   -1946484.6    57669.181   -1888815.4    5319157.1 
   19600          4.9    960.54588     201008.3   -1945746.7    56935.071   -1888811.6    5313981.2 
   19700        4.925    948.42509     203098.4   -1945019.7    56216.628     -1888803    5308805.3 
   19800         4.95    935.07577    205481.84   -1944217.1    55425.365   -1888791.7    5303629.4 
   19900        4.975    920.76195    207392.41   -1943364.5    54576.932   -1888787.6    5298453.5 
   20000            5    906.65688    209631.84   -1942532.5    53740.873   -1888791.6    5293277.5 
   20100        5.025    892.61113    211867.01   -1941700.2     52908.33   -1888791.9    5288101.6 
   20200         5.05      879.449    214269.67   -1940912.3    52128.162   -1888784.2    5282925.7 
   20300        5.075    864.61186    216434.98   -1940023.5    51248.711   -1888774.8    5277749.8 
   20400          5.1    850.20363    218700.79   -1939163.2    50394.682   -1888768.5    5272573.9 
   20500        5.125    837.33849    220749.52   -1938397.9    49632.118   -1888765.8      5267398 
   20600         5.15     822.1859    223074.33   -1937497.4    48733.968   -1888763.4      5262222 
   20700        5.175    808.06556    224983.65   -1936656.9    47897.004   -1888759.9    5257046.1 
   20800          5.2    793.02446    227709.31   -1935766.6    47005.463   -1888761.1    5251870.2 
   20900        5.225    779.03257     230289.7   -1934942.5    46176.113   -1888766.4    5246694.3 
   21000         5.25    765.21839    232097.54   -1934122.8    45357.296   -1888765.5    5241518.4 
   21100        5.275    751.39087    234690.08   -1933295.2    44537.688   -1888757.5    5236342.4 
   21200          5.3    738.51622    236856.59   -1932524.9     43774.56   -1888750.3    5231166.5 
   21300        5.325    726.41993     238787.3     -1931810    43057.569   -1888752.5    5225990.6 
   21400         5.35    714.38507    240949.98   -1931103.9    42344.218   -1888759.6    5220814.7 
   21500        5.375    704.77816    243147.63   -1930540.2    41774.782   -1888765.4    5215638.8 
   21600          5.4    694.54248    244730.35   -1929936.2    41168.076   -1888768.1    5210462.9 
   21700        5.425    684.15899    247077.76     -1929324    40552.608   -1888771.4    5205286.9 
   21800         5.45    675.59446    248524.25   -1928817.5    40044.957   -1888772.6      5200111 
   21900        5.475    667.25715    250259.07   -1928321.9    39550.775   -1888771.1    5194935.1 
   22000          5.5    658.63377    252065.73   -1927811.6    39039.635     -1888772    5189759.2 
   22100        5.525     652.5693    253759.38   -1927454.8    38680.171   -1888774.7    5184583.3 
   22200         5.55    646.49665    255533.86   -1927096.8    38320.224   -1888776.6    5179407.3 
   22300        5.575    640.64404    257106.72     -1926746    37973.318   -1888772.7    5174231.4 
   22400          5.6    634.49348    258112.18   -1926372.7    37608.752     -1888764    5169055.5 
   22500        5.625    629.65976    258991.58   -1926072.7    37322.239   -1888750.5    5163879.6 
   22600         5.65     626.7559    259736.14   -1925881.5    37150.117   -1888731.4    5158703.7 
   22700        5.675    623.31538    260615.72   -1925647.2    36946.185     -1888701    5153527.7 
   22800          5.7    620.58772    261349.95   -1925427.5    36784.506     -1888643    5148351.8 
   22900        5.725    617.50206    261485.83   -1925134.8    36601.608   -1888533.2    5143175.9 
   23000         5.75    617.62207     262246.4   -1924942.3    36608.721   -1888333.5      5138000 
   23100        5.775    619.47522    262847.07   -1924718.9    36718.565   -1888000.4    5132824.1 
   23200          5.8    622.49178    262962.45   -1924429.4    36897.367     -1887532    5127648.2 
   23300        5.825    629.08815    263446.69   -1924266.6    37288.358   -1886978.2    5122472.2 
   23400         5.85    633.14338    263743.14   -1923930.3    37528.726   -1886401.6    5117296.3 
   23500        5.875    638.47487    264300.62   -1923692.9    37844.743   -1885848.2    5112120.4 
   23600          5.9    640.75778    264273.41   -1923313.3     37980.06   -1885333.2    5106944.5 
   23700        5.925    644.19205    264821.49   -1923020.2    38183.621   -1884836.6    5101768.6 
   23800         5.95    644.79282    265219.46   -1922557.6    38219.231   -1884338.4    5096592.6 
   23900        5.975    647.33284    265497.08   -1922197.6    38369.787   -1883827.8    5091416.7 
   24000            6    649.09136    265558.75   -1921762.9    38474.022   -1883288.9    5086240.8 
   24100        6.025     650.0288    266026.11   -1921254.4    38529.587   -1882724.8    5081064.9 
   24200         6.05    651.23984    266572.77   -1920754.9     38601.37   -1882153.5      5075889 
   24300        6.075    654.27517    266538.08   -1920343.8    38781.285   -1881562.5      5070713 
   24400          6.1    655.62117    267365.54   -1919780.9    38861.067   -1880919.9    5065537.1 
   24500        6.125    658.96894    267970.41   -1919265.7    39059.502   -1880206.2    5060361.2 
   24600         6.15    663.75861    268761.05   -1918771.4    39343.403     -1879428    5055185.3 
   24700        6.175    668.33129    269579.36   -1918164.4    39614.442     -1878550    5050009.4 
   24800          6.2     676.4572    270548.09   -1917673.8    40096.095   -1877577.7    5044833.5 
   24900        6.225     682.7008    270812.96     -1917017    40466.176   -1876550.9    5039657.5 
   25000         6.25    691.19612    271774.63   -1916446.5    40969.725   -1875476.8    5034481.6 
   25100        6.275    700.60465    272536.61   -1915886.1    41527.403   -1874358.7    5029305.7 
   25200          6.3    709.79101    273127.81   -1915286.1    42071.912   -1873214.2    5024129.8 
   25300        6.325    717.66533    273661.32   -1914596.8    42538.652   -1872058.2    5018953.9 
   25400         6.35    725.94941    274580.98   -1913914.6    43029.679   -1870884.9    5013777.9 
   25500        6.375    733.01004    275045.03   -1913124.5    43448.189   -1869676.3      5008602 
   25600          6.4    740.75804    276396.05   -1912329.5    43907.441   -1868422.1    5003426.1 
   25700        6.425    745.73775    277302.25   -1911335.9    44202.607   -1867133.3    4998250.2 
   25800         6.45    753.32899    278710.46   -1910458.6    44652.567     -1865806    4993074.3 
   25900        6.475    761.67556    279603.46   -1909577.5    45147.299   -1864430.2    4987898.4 
   26000          6.5      767.579    280984.57   -1908523.2    45497.218     -1863026    4982722.4 
   26100        6.525    774.01978    282104.81   -1907486.3    45878.986   -1861607.3    4977546.5 
   26200         6.55    778.38705    283862.59   -1906311.4     46137.85   -1860173.5    4972370.6 
   26300        6.575    779.69121    285355.11   -1904951.8    46215.153   -1858736.6    4967194.7 
   26400          6.6    784.14961    287084.27   -1903767.8    46479.418   -1857288.3    4962018.8 
   26500        6.625    784.90672    289838.55   -1902360.4    46524.295   -1855836.2    4956842.8 
   26600         6.65    783.24863    291172.66   -1900824.8    46426.014   -1854398.8    4951666.9 
   26700        6.675    782.75657    293811.14   -1899342.3    46396.848   -1852945.4      4946491 
   26800          6.7    782.06213     296394.3   -1897766.6    46355.686   -1851410.9    4941315.1 
   26900        6.725    779.16952    298679.63   -1895991.9     46184.23   -1849807.6    4936139.2 
   27000         6.75    777.65586    301240.54   -1894251.7     46094.51   -1848157.2    4930963.2 
   27100        6.775    775.29239    304404.87   -1892370.3    45954.419   -1846415.9    4925787.3 
   27200          6.8    774.76278    306936.14   -1890554.5    45923.027   -1844631.5    4920611.4 
   27300        6.825    773.28025    309921.75   -1888690.1    45835.152   -1842854.9    4915435.5 
   27400         6.85     772.4982    312545.55   -1886831.5    45788.797   -1841042.7    4910259.6 
   27500        6.875    771.73023    315283.31   -1884962.3    45743.277     -1839219    4905083.7 
   27600          6.9    770.34495    317911.03   -1883067.2    45661.166     -1837406    4899907.7 
   27700        6.925    769.38092    321272.54   -1881117.1    45604.024     -1835513    4894731.8 
   27800         6.95    770.71602    324240.76   -1879212.6     45683.16   -1833529.4    4889555.9 
   27900        6.975    773.14837    327198.28   -1877318.9    45827.335   -1831491.6      4884380 
   28000            7    777.89941    330318.16   -1875492.6    46108.946   -1829383.6    4879204.1 
   28100        7.025    782.27739    333358.41   -1873592.8    46368.445   -1827224.4    4874028.1 
   28200         7.05    790.71777    336932.83   -1871881.6    46868.737   -1825012.9    4868852.2 
   28300        7.075    797.88466    339705.98   -1870013.7    47293.545   -1822720.1    4863676.3 
   28400          7.1    806.03845    343342.75   -1868172.8     47776.85   -1820395.9    4858500.4 
   28500        7.125    816.50905    346231.89   -1866435.8    48397.481   -1818038.4    4853324.5 
   28600         7.15    828.49231    348922.19   -1864715.6    49107.773   -1815607.8    4848148.5 
   28700        7.175    841.61433    351932.21     -1863020    49885.563   -1813134.4    4842972.6 
   28800          7.2    858.24215    355164.81     -1861487    50871.154   -1810615.9    4837796.7 
   28900        7.225    874.80144    357851.48   -1859904.5    51852.685   -1808051.8    4832620.8 
   29000         7.25    892.69148    360595.35   -1858373.6    52913.093   -1805460.5    4827444.9 
   29100        7.275    913.21848    363288.77   -1856957.6    54129.803   -1802827.8      4822269 
   29200          7.3    933.27149    366045.62   -1855477.1    55318.418   -1800158.6      4817093 
   29300        7.325    956.85051    369622.27   -1854158.1    56716.033   -1797442.1    4811917.1 
   29400         7.35    980.59563    372736.11   -1852803.7    58123.493   -1794680.2    4806741.2 
   29500        7.375    1007.6412    375601.02   -1851630.5    59726.583     -1791904    4801565.3 
   29600          7.4    1032.1182     378505.9   -1850273.5    61177.423     -1789096    4796389.4 
   29700        7.425    1059.1002    382179.21   -1849050.6    62776.746   -1786273.8    4791213.4 
   29800         7.45    1085.9855    385035.17   -1847838.6    64370.338   -1783468.3    4786037.5 
   29900        7.475    1114.7099    387850.75   -1846731.6    66072.936   -1780658.6    4780861.6 
   30000          7.5    1143.3764    390944.34   -1845599.5    67772.105   -1777827.4    4775685.7 
   30100        7.525    1172.9593    393623.79   -1844506.2    69525.591   -1774980.6    4770509.8 
   30200         7.55    1201.3129    396925.91   -1843323.2    71206.214     -1772117    4765333.9 
   30300        7.575     1229.273    400609.11   -1842125.8    72863.513   -1769262.3    4760157.9 
   30400          7.6    1256.6694    403006.64   -1840919.9    74487.394   -1766432.5      4754982 
   30500        7.625    1280.7576    406288.75   -1839528.9     75915.19   -1763613.7    4749806.1 
   30600         7.65     1304.882    410130.41   -1838158.4    77345.135   -1760813.3    4744630.2 
   30700        7.675    1328.2049     413877.5   -1836754.8    78727.567   -1758027.2    4739454.3 
   30800          7.7    1351.2273    418295.24   -1835335.6    80092.189   -1755243.5    4734278.3 
   30900        7.725    1372.7657    422731.15   -1833836.6    81368.847   -1752467.8    4729102.4 
   31000         7.75    1398.0209     427221.4   -1832556.5    82865.816   -1749690.7    4723926.5 
   31100        7.775    1420.2303    431218.07     -1831112    84182.248   -1746929.7    4718750.6 
   31200          7.8    1442.7888    436349.25   -1829754.8    85519.373   -1744235.4    4713574.7 
   31300        7.825    1463.4637    440633.32   -1828379.5    86744.854   -1741634.6    4708398.7 
   31400         7.85    1481.8564     444706.3   -1826948.1    87835.054   -1739113.1    4703222.8 
   31500        7.875    1495.7905    449649.69     -1825345    88660.982     -1736684    4698046.9 
   31600          7.9     1509.273    454264.81   -1823803.7    89460.137   -1734343.6      4692871 
   31700        7.925    1521.0711    459017.08   -1822221.4    90159.454     -1732062    4687695.1 
   31800         7.95     1529.384    463954.68   -1820472.1     90652.19   -1729819.9    4682519.2 
   31900        7.975    1539.1149     469183.9     -1818834    91228.976     -1727605    4677343.2 
   32000            8    1544.0602    474287.39   -1816920.2      91522.1   -1725398.1    4672167.3 
   32100        8.025    1548.3763    480311.46   -1814964.2    91777.931   -1723186.3    4666991.4 
   32200         8.05    1553.8094    485588.61   -1813057.7     92099.97   -1720957.7    4661815.5 
   32300        8.075    1556.9284    491468.72   -1811005.7    92284.847   -1718720.9    4656639.6 
   32400          8.1    1559.3782    497049.39   -1808932.8    92430.056   -1716502.7    4651463.6 
   32500        8.125     1562.486    502914.97   -1806929.7    92614.265   -1714315.5    4646287.7 
   32600         8.15    1563.2089    508628.62   -1804813.1    92657.117   -1712155.9    4641111.8 
   32700        8.175    1565.3469    514355.69   -1802826.2    92783.841   -1710042.3    4635935.9 
   32800          8.2    1565.8012    519800.11   -1800780.5    92810.772   -1707969.7      4630760 
   32900        8.225    1566.6847    524955.87   -1798778.1    92863.138     -1705915      4625584 
   33000         8.25    1569.5752    529724.52   -1796920.2    93034.469   -1703885.7    4620408.1 
   33100        8.275    1572.0104    534853.16   -1795064.4    93178.812   -1701885.6    4615232.2 
   33200          8.3    1576.1973    538583.54   -1793285.3    93426.985   -1699858.3    4610056.3 
   33300        8.325    1584.0417    542544.46   -1791708.6     93891.95   -1697816.6    4604880.4 
   33400         8.35    1591.7861    545954.84   -1790162.6    94350.989   -1695811.6    4599704.5 
   33500        8.375    1599.8522    548926.45   -1788640.6      94829.1   -1693811.6    4594528.5 
   33600          8.4    1610.2074    551906.57   -1787277.2    95442.887   -1691834.3    4589352.6 
   33700        8.425    1619.5831    555051.66     -1785917    95998.618   -1689918.4    4584176.7 
   33800         8.45    1632.5048    557744.11   -1784767.7    96764.535   -1688003.2    4579000.8 
   33900        8.475    1646.4641    560389.78   -1783663.9    97591.953   -1686071.9    4573824.9 
   34000          8.5     1660.285    563354.32   -1782576.2    98411.168     -1684165    4568648.9 
   34100        8.525    1675.2114     565878.2   -1781532.6    99295.916   -1682236.6      4563473 
   34200         8.55    1692.4302    568722.58   -1780558.8    100316.54   -1680242.3    4558297.1 
   34300        8.575    1714.8927    571308.52   -1779803.9    101647.97     -1678156    4553121.2 
   34400          8.6    1736.5888    574136.63   -1778850.6    102933.98   -1675916.7    4547945.3 
   34500        8.625    1764.7735    576680.62   -1778136.2    104604.58   -1673531.6    4542769.4 
   34600         8.65         1793    579176.18   -1777286.6    106277.68   -1671008.9    4537593.4 
   34700        8.675    1828.4513    581437.91   -1776696.2       108379   -1668317.2    4532417.5 
   34800          8.7    1866.5363     583651.8   -1776216.4    110636.44     -1665580    4527241.6 
   34900        8.725    1902.6501    585680.97   -1775689.9    112777.04   -1662912.8    4522065.7 
   35000         8.75    1939.6347    587994.34   -1775290.7    114969.25   -1660321.5    4516889.8 
   35100        8.775    1975.4371    590163.81   -1774929.3    117091.39   -1657837.9    4511713.8 
   35200          8.8     2010.491    592079.05   -1774596.7    119169.16   -1655427.6    4506537.9 
   35300        8.825    2046.4398    594470.34   -1774304.9    121299.98   -1653004.9      4501362 
   35400         8.85    2082.2232    596512.57   -1774012.8    123420.99   -1650591.8    4496186.1 
   35500        8.875    2113.7541    598692.13     -1773454    125289.95     -1648164    4491010.2 
   35600          8.9    2147.9931    601798.33   -1773003.4    127319.42   -1645683.9    4485834.2 
   35700        8.925    2176.6805    604754.03   -1772203.7    129019.82   -1643183.9    4480658.3 
   35800         8.95    2200.3792    607075.14   -1771123.1    130424.53   -1640698.6    4475482.4 
   35900        8.975     2216.982     610574.6   -1769604.5    131408.64   -1638195.9    4470306.5 
   36000            9    2230.1105    614872.34   -1767844.4    132186.81   -1635657.6    4465130.6 
   36100        9.025    2242.3172    618970.97   -1765986.2    132910.35   -1633075.8    4459954.7 
   36200         9.05    2249.6607    622975.26   -1763818.6    133345.62     -1630473    4454778.7 
   36300        9.075    2256.8943    627873.11   -1761639.6    133774.39   -1627865.2    4449602.8 
   36400          9.1    2263.4547    631930.17   -1759384.9    134163.25   -1625221.6    4444426.9 
   36500        9.125    2268.0805    636728.82   -1756999.8    134437.43   -1622562.4      4439251 
   36600         9.15     2274.007    641124.54     -1754677    134788.72   -1619888.2    4434075.1 
   36700        9.175    2281.9342    645142.82   -1752408.9    135258.59   -1617150.3    4428899.1 
   36800          9.2    2289.5377    649553.24   -1750088.5    135709.28   -1614379.2    4423723.2 
   36900        9.225    2296.2458     654236.3     -1747726     136106.9   -1611619.1    4418547.3 
   37000         9.25    2308.1666    658203.44   -1745618.7    136813.49   -1608805.3    4413371.4 
   37100        9.275    2316.0105    662201.96   -1743245.1    137278.42   -1605966.7    4408195.5 
   37200          9.3    2325.5322    665898.35   -1740971.2    137842.81   -1603128.4    4403019.5 
   37300        9.325    2331.3244    670218.71   -1738437.1    138186.13   -1600250.9    4397843.6 
   37400         9.35    2338.5087    675004.19   -1735964.8    138611.97   -1597352.9    4392667.7 
   37500        9.375    2344.4332    679444.44     -1733385    138963.14   -1594421.8    4387491.8 
   37600          9.4    2355.3802    684601.38   -1731048.8    139612.01   -1591436.8    4382315.9 
   37700        9.425    2365.0465    689901.73   -1728628.8    140184.96   -1588443.9      4377140 
   37800         9.45    2375.8645    694081.75   -1726257.6    140826.19   -1585431.4      4371964 
   37900        9.475    2389.0221    698790.93   -1723991.7    141606.09   -1582385.6    4366788.1 
   38000          9.5    2401.1776    703845.29   -1721663.1    142326.59   -1579336.5    4361612.2 
   38100        9.525    2418.1622    709676.05   -1719598.9    143333.33   -1576265.6    4356436.3 
   38200         9.55    2433.1784    716350.76   -1717414.4    144223.39     -1573191    4351260.4 
   38300        9.575    2451.7138    723642.31   -1715498.6    145322.05   -1570176.5    4346084.4 
   38400          9.6    2468.2934    732638.96   -1713483.1    146304.79   -1567178.3    4340908.5 
   38500        9.625    2488.7195    740920.49   -1711703.7    147515.52   -1564188.2    4335732.6 
   38600         9.65    2506.5353    747225.07   -1709806.1    148571.52   -1561234.6    4330556.7 
   38700        9.675    2520.7876    755354.61   -1707738.7    149416.31   -1558322.3    4325380.8 
   38800          9.7    2531.7028    762846.29   -1705541.2     150063.3   -1555477.9    4320204.9 
   38900        9.725    2537.0421    771157.86   -1703069.2    150379.77   -1552689.5    4315028.9 
   39000         9.75    2538.9622     778910.3   -1700436.1    150493.58   -1549942.6      4309853 
   39100        9.775    2535.3883    785212.34   -1697578.6    150281.74   -1547296.9    4304677.1 
   39200          9.8    2535.3228    791095.67   -1695003.6    150277.87   -1544725.7    4299501.2 
   39300        9.825    2536.1924    795107.16   -1692548.6    150329.41   -1542219.2    4294325.3 
   39400         9.85    2538.5546    798122.12   -1690289.1    150469.42   -1539819.7    4289149.3 
   39500        9.875    2537.8206    801604.67   -1687883.2    150425.92   -1537457.3    4283973.4 
   39600          9.9    2535.1174    805278.48   -1685428.4    150265.69   -1535162.7    4278797.5 
   39700        9.925    2530.7962    809708.75   -1682987.4    150009.56   -1532977.9    4273621.6 
   39800         9.95      2523.32    814063.39   -1680405.1    149566.42   -1530838.7    4268445.7 
   39900        9.975    2514.9787    819430.24   -1677833.8       149072   -1528761.8    4263269.7 
   40000           10     2504.864     824143.8   -1675231.2    148472.46   -1526758.8    4258093.8 
   40100       10.025    2489.2437    829936.96   -1672321.1    147546.59   -1524774.5    4252917.9 
   40200        10.05    2474.0422    835786.62   -1669464.7    146645.54   -1522819.2      4247742 
   40300       10.075    2456.6977    840882.86     -1666503    145617.47   -1520885.6    4242566.1 
   40400         10.1    2438.8672    846508.08   -1663514.7    144560.59   -1518954.1    4237390.2 
   40500       10.125    2417.6853    852680.23   -1660375.1    143305.06   -1517070.1    4232214.2 
   40600        10.15     2391.936    856814.78   -1657011.4    141778.81   -1515232.6    4227038.3 
   40700       10.175    2365.3075    861799.11   -1653614.7    140200.44   -1513414.2    4221862.4 
   40800         10.2     2333.632    867174.36   -1649988.9    138322.91   -1511665.9    4216686.5 
   40900       10.225    2298.6793    871837.51   -1646229.8    136251.14   -1509978.7    4211510.6 
   41000        10.25    2264.1656    877880.88   -1642502.6    134205.38   -1508297.2    4206334.6 
   41100       10.275    2228.2744    883932.73   -1638712.3    132077.98   -1506634.4    4201158.7 
   41200         10.3    2194.4045    888773.76   -1635076.5    130070.39   -1505006.1    4195982.8 
   41300       10.325    2158.8217    894539.65   -1631351.1    127961.27   -1503389.9    4190806.9 
   41400        10.35    2124.3917    899404.53   -1627710.6    125920.48   -1501790.1      4185631 
   41500       10.375    2091.9305    905208.02   -1624220.7    123996.38   -1500224.3      4180455 
   41600         10.4    2058.1504    910158.29   -1620693.4    121994.11   -1498699.3    4175279.1 
   41700       10.425    2027.3603    916099.32   -1617397.9    120169.07   -1497228.8    4170103.2 
   41800        10.45    1995.6082    920990.52   -1614075.1    118287.01   -1495788.1    4164927.3 
   41900       10.475    1965.9316    925634.81   -1610880.5    116527.96   -1494352.6    4159751.4 
   42000         10.5    1937.8405    930776.93   -1607791.5     114862.9   -1492928.5    4154575.5 
   42100       10.525    1906.7558    936499.58   -1604546.7    113020.39   -1491526.3    4149399.5 
   42200        10.55     1880.858    941373.91   -1601629.5    111485.34   -1490144.1    4144223.6 
   42300       10.575    1851.2189    945516.93   -1598532.5    109728.52     -1488804    4139047.7 
   42400         10.6    1822.3937    951468.23   -1595517.9    108019.95     -1487498    4133871.8 
   42500       10.625    1793.8875    956533.04   -1592535.4    106330.28   -1486205.1    4128695.9 
   42600        10.65     1763.889    960589.78   -1589506.4    104552.16   -1484954.2    4123519.9 
   42700       10.675    1734.9035    964780.71   -1586579.8    102834.08   -1483745.7      4118344 
   42800         10.7    1708.3274    969534.12   -1583813.5    101258.82   -1482554.7    4113168.1 
   42900       10.725    1683.5567    972930.78   -1581175.2    99790.567   -1481384.6    4107992.2 
   43000        10.75    1654.9678    977231.17   -1578328.9    98096.003   -1480232.9    4102816.3 
   43100       10.775    1629.7275    980395.32   -1575703.7    96599.915   -1479103.8    4097640.4 
   43200         10.8     1601.313    984073.36   -1572922.4    94915.686   -1478006.7    4092464.4 
   43300       10.825    1575.9172    988979.91   -1570340.3    93410.381   -1476929.9    4087288.5 
   43400        10.85    1547.7696    992541.93   -1567622.3    91741.969   -1475880.3    4082112.6 
   43500       10.875     1519.091    995798.07   -1564887.3    90042.086   -1474845.2    4076936.7 
   43600         10.9    1493.1741    997281.51   -1562287.2    88505.895   -1473781.3    4071760.8 
   43700       10.925    1469.1486    999652.47   -1559693.4    87081.815   -1472611.6    4066584.8 
   43800        10.95    1445.4661    1001243.7   -1556784.9     85678.07   -1471106.8    4061408.9 
   43900       10.975     1431.087    1003213.4   -1553638.3    84825.764   -1468812.5      4056233 
   44000           11    1430.6846    1005664.3   -1550749.3    84801.913   -1465947.4    4051057.1 
   44100       11.025     1419.446    1007012.9   -1547647.1    84135.762   -1463511.3    4045881.2 
   44200        11.05    1399.4525    1008671.5   -1544422.1    82950.675   -1461471.4    4040705.2 
   44300       11.075    1382.2446    1010725.5   -1541278.1      81930.7   -1459347.4    4035529.3 
   44400         11.1    1370.5262    1012873.4   -1538217.5    81236.107   -1456981.4    4030353.4 
   44500       11.125    1358.2175    1015412.3   -1534844.4    80506.524   -1454337.8    4025177.5 
   44600        11.15    1351.6334    1017968.4   -1531741.6    80116.261   -1451625.3    4020001.6 
   44700       11.175    1338.4009    1021877.9   -1528523.9    79331.924   -1449191.9    4014825.7 
   44800         11.2    1323.6819      1025409   -1525378.7     78459.47   -1446919.2    4009649.7 
   44900       11.225    1312.5874    1028561.8     -1522225    77801.859   -1444423.2    4004473.8 
   45000        11.25    1304.9327    1033541.5   -1519022.2    77348.137     -1441674    3999297.9 
   45100       11.275    1297.9133    1037960.9   -1515864.2    76932.075   -1438932.1      3994122 
   45200         11.3    1291.2989      1042353   -1512807.1    76540.016   -1436267.1    3988946.1 
   45300       11.325     1286.661    1047926.3   -1509812.8    76265.107   -1433547.6    3983770.1 
   45400        11.35    1284.1637    1052116.6   -1506646.9    76117.087   -1430529.8    3978594.2 
   45500       11.375    1287.8524    1058563.2     -1503605    76335.727   -1427269.2    3973418.3 
   45600         11.4    1289.6766    1063405.1   -1500648.8    76443.854   -1424204.9    3968242.4 
   45700       11.425    1282.5355    1070121.1   -1497440.3    76020.575   -1421419.7    3963066.5 
   45800        11.45    1283.0177    1074914.2   -1494587.3    76049.158   -1418538.1    3957890.5 
   45900       11.475    1282.2433    1081959.9     -1491399    76003.253   -1415395.7    3952714.6 
   46000         11.5    1285.9069    1088951.6   -1488367.8    76220.407   -1412147.4    3947538.7 
   46100       11.525    1290.3507    1096249.6     -1485488    76483.811   -1409004.2    3942362.8 
   46200        11.55    1290.3714    1103937.8   -1482445.6    76485.039   -1405960.5    3937186.9 
   46300       11.575    1293.5863    1111072.3   -1479449.3    76675.594   -1402773.7      3932011 
   46400         11.6     1299.941    1118765.5   -1476471.1     77052.26   -1399418.9      3926835 
   46500       11.625    1308.0025    1126423.8   -1473579.6      77530.1   -1396049.5    3921659.1 
   46600        11.65    1316.4375      1132707   -1470700.9    78030.068   -1392670.8    3916483.2 
   46700       11.675    1323.2086    1139309.3   -1467722.3    78431.421   -1389290.9    3911307.3 
   46800         11.7    1331.2916    1146060.5     -1464722    78910.525   -1385811.5    3906131.4 
   46900       11.725    1343.3022    1152433.2   -1461854.7    79622.439   -1382232.3    3900955.4 
   47000        11.75    1351.5055    1158799.2     -1458816    80108.678   -1378707.3    3895779.5 
   47100       11.775    1361.9685    1165632.4     -1455893    80728.861   -1375164.1    3890603.6 
   47200         11.8    1370.4582    1171796.7   -1452747.8    81232.073   -1371515.8    3885427.7 
   47300       11.825    1381.0894    1176392.4     -1449609    81862.224   -1367746.8    3880251.8 
   47400        11.85    1390.9586      1182870   -1446330.8    82447.211   -1363883.6    3875075.9 
   47500       11.875    1401.5047      1189378     -1443097    83072.316   -1360024.7    3869899.9 
   47600         11.9    1412.3995    1194810.5   -1439817.6    83718.088   -1356099.5      3864724 
   47700       11.925     1419.464    1199455.7     -1436195    84136.827   -1352058.2    3859548.1 
   47800        11.95    1428.2411    1206492.6   -1432647.9    84657.079   -1347990.8    3854372.2 
   47900       11.975      1433.64      1212370   -1428887.1     84977.09     -1343910    3849196.3 
   48000           12    1444.8684    1218214.9   -1425439.4     85642.64   -1339796.7    3844020.3 
   48100       12.025    1448.0988    1225335.6   -1421533.7     85834.12   -1335699.6    3838844.4 
   48200        12.05    1459.3114    1230919.5   -1418035.3     86498.73   -1331536.6    3833668.5 
   48300       12.075    1461.8313    1238354.4   -1414046.3    86648.095   -1327398.2    3828492.6 
   48400         12.1    1463.4195    1244163.9   -1410007.9    86742.233   -1323265.7    3823316.7 
   48500       12.125    1465.7686    1251080.9   -1406024.4    86881.469   -1319142.9    3818140.7 
   48600        12.15    1467.9659    1257594.7   -1402064.2    87011.714   -1315052.5    3812964.8 
   48700       12.175    1466.1216    1263045.5   -1397874.6    86902.397   -1310972.2    3807788.9 
   48800         12.2    1465.6151    1269931.6   -1393781.4    86872.373     -1306909      3802613 
   48900       12.225    1466.7947    1276397.2   -1389764.7    86942.294   -1302822.4    3797437.1 
   49000        12.25    1465.6165    1282533.9   -1385559.9    86872.456   -1298687.5    3792261.2 
   49100       12.275    1466.6027    1287820.3   -1381398.4    86930.912   -1294467.5    3787085.2 
   49200         12.3    1468.6305    1294860.5   -1377248.1    87051.107     -1290197    3781909.3 
   49300       12.325    1465.7074    1299916.5   -1372735.9    86877.845   -1285858.1    3776733.4 
   49400        12.35    1468.9131    1304981.1   -1368541.4    87067.859   -1281473.6    3771557.5 
   49500       12.375    1469.0925    1308547.3   -1364149.8    87078.491   -1277071.3    3766381.6 
   49600         12.4     1473.084    1313256.5   -1359937.6    87315.081   -1272622.5    3761205.6 
   49700       12.425    1472.7662      1317389   -1355475.7    87296.247   -1268179.5    3756029.7 
   49800        12.45    1470.4278    1321658.2   -1350832.6    87157.638     -1263675    3750853.8 
   49900       12.475     1471.544    1324186.6   -1346323.5    87223.798   -1259099.7    3745677.9 
   50000         12.5    1470.1529    1327944.5   -1341624.9    87141.348   -1254483.6      3740502 
Loop time of 2628.48 on 96 procs for 50000 steps with 458562 atoms

Performance: 0.411 ns/day, 58.411 hours/ns, 19.022 timesteps/s
100.0% CPU use with 96 MPI tasks x 1 OpenMP threads

MPI task timing breakdown:
Section |  min time  |  avg time  |  max time  |%varavg| %total
---------------------------------------------------------------
Pair    | 873.24     | 1301       | 2535.7     |1301.8 | 49.50
Neigh   | 9.9125     | 14.299     | 18.311     |  74.2 |  0.54
Comm    | 27.062     | 394.77     | 1248       |1755.7 | 15.02
Output  | 9.3149     | 9.3163     | 9.3926     |   0.3 |  0.35
Modify  | 29.818     | 904.96     | 1221.3     |1671.3 | 34.43
Other   |            | 4.099      |            |       |  0.16

Nlocal:        4776.69 ave        5348 max        4075 min
Histogram: 12 1 11 5 14 6 10 16 6 15
Nghost:        11630.3 ave       12770 max       10501 min
Histogram: 12 0 9 14 16 15 7 10 1 12
Neighs:         0.00000 ave           0 max           0 min
Histogram: 96 0 0 0 0 0 0 0 0 0
FullNghs:  1.31740e+06 ave 1.66978e+06 max      900387 min
Histogram: 12 3 9 12 0 16 8 4 21 11

Total # of neighbors = 1.2647005e+08
Ave neighs/atom = 275.79705
Neighbor list builds = 511
Dangerous builds = 0
Total wall time: 0:43:52
