LAMMPS (29 Sep 2021)
  using 1 OpenMP thread(s) per MPI task
Reading data file ...
  orthogonal box = (-0.51462936 -0.51941335 0.0000000) to (101.83843 101.84322 530.60000)
  2 by 2 by 6 MPI processor grid
  reading atoms ...
  425652 atoms
  reading velocities ...
  425652 velocities
  read_data CPU = 4.313 seconds
212828 atoms in group g_left
212824 atoms in group g_right

CITE-CITE-CITE-CITE-CITE-CITE-CITE-CITE-CITE-CITE-CITE-CITE-CITE

Your simulation uses code contributions which should be cited:
- GPU package (short-range, long-range and three-body potentials):
The log file lists these citations in BibTeX format.

CITE-CITE-CITE-CITE-CITE-CITE-CITE-CITE-CITE-CITE-CITE-CITE-CITE


--------------------------------------------------------------------------
- Using acceleration for eam/alloy:
-  with 12 proc(s) per device.
-  Horizontal vector operations: ENABLED
-  Shared memory system: No
--------------------------------------------------------------------------
Device 0: Tesla V100-SXM2-32GB, 80 CUs, 28/32 GB, 1.5 GHZ (Mixed Precision)
Device 1: Tesla V100-SXM2-32GB, 80 CUs, 1.5 GHZ (Mixed Precision)
--------------------------------------------------------------------------

Initializing Device and compiling on process 0...Done.
Initializing Devices 0-1 on core 0...Done.
Initializing Devices 0-1 on core 1...Done.
Initializing Devices 0-1 on core 2...Done.
Initializing Devices 0-1 on core 3...Done.
Initializing Devices 0-1 on core 4...Done.
Initializing Devices 0-1 on core 5...Done.
Initializing Devices 0-1 on core 6...Done.
Initializing Devices 0-1 on core 7...Done.
Initializing Devices 0-1 on core 8...Done.
Initializing Devices 0-1 on core 9...Done.
Initializing Devices 0-1 on core 10...Done.
Initializing Devices 0-1 on core 11...Done.

Setting up Verlet run ...
  Unit style    : metal
  Current step  : 0
  Time step     : 0.00025
Per MPI rank memory allocation (min/avg/max) = 8.288 | 10.15 | 11.09 Mbytes
Step Time Temp Press PotEng KinEng TotEng Volume 
       0            0     2345.422    21640.847   -1767702.2    129044.44   -1638657.8    5559164.7 
     100        0.025    2345.6389    21635.728   -1767722.3    129056.37     -1638666    5553926.1 
     200         0.05    2345.3449    21643.353   -1767712.6     129040.2   -1638672.4    5548687.6 
     300        0.075    2345.4074    21642.513   -1767723.9    129043.64   -1638680.2      5543449 
     400          0.1    2344.8726    21652.957   -1767702.2    129014.21     -1638688    5538210.4 
     500        0.125    2344.9647    21690.449   -1767709.5    129019.28   -1638690.2    5532971.9 
     600         0.15    2345.6793    21738.527   -1767738.1    129058.59   -1638679.5    5527733.3 
     700        0.175     2345.148    21795.553   -1767701.4    129029.36     -1638672    5522494.7 
     800          0.2    2345.3246    21812.202   -1767717.3    129039.08   -1638678.2    5517256.2 
     900        0.225    2344.9361    21839.691   -1767707.4     129017.7   -1638689.7    5512017.6 
    1000         0.25    2344.8481    21862.226   -1767699.1    129012.86   -1638686.3      5506779 
    1100        0.275    2345.7226    21872.096   -1767738.6    129060.98   -1638677.6    5501540.5 
    1200          0.3    2345.3605    21897.694     -1767715    129041.06   -1638673.9    5496301.9 
    1300        0.325    2345.5602    21909.574   -1767729.3    129052.04   -1638677.2    5491063.3 
    1400         0.35    2345.0665    21940.345   -1767700.5    129024.88   -1638675.6    5485824.8 
    1500        0.375    2345.2795    21954.637   -1767702.6     129036.6     -1638666    5480586.2 
    1600          0.4    2345.9662    22003.657   -1767731.8    129074.38   -1638657.4    5475347.7 
    1700        0.425    2345.6242    22069.602   -1767707.8    129055.56   -1638652.2    5470109.1 
    1800         0.45    2345.9618    22102.769   -1767724.1    129074.14   -1638649.9    5464870.5 
    1900        0.475    2345.8534    22123.186   -1767712.6    129068.18   -1638644.4      5459632 
    2000          0.5    2346.7079    22131.778   -1767761.2    129115.19     -1638646    5454393.4 
    2100        0.525    2345.2351    22163.631   -1767688.5    129034.15   -1638654.3    5449154.8 
    2200         0.55    2345.4261    22151.988   -1767705.9    129044.66   -1638661.2    5443916.3 
    2300        0.575    2345.3214    22167.529   -1767702.5     129038.9   -1638663.6    5438677.7 
    2400          0.6    2345.6787    22177.081   -1767719.1    129058.56   -1638660.5    5433439.1 
    2500        0.625    2346.1569    22169.087   -1767748.3    129084.87   -1638663.4    5428200.6 
    2600         0.65    2344.9084    22203.144   -1767685.7    129016.18   -1638669.5      5422962 
    2700        0.675    2345.0019    22229.443   -1767695.6    129021.32   -1638674.3    5417723.4 
    2800          0.7    2346.0497    22233.358   -1767748.2    129078.97   -1638669.3    5412484.9 
    2900        0.725    2345.4577    22262.988   -1767710.1     129046.4   -1638663.7    5407246.3 
    3000         0.75     2345.432    22269.233   -1767706.7    129044.99   -1638661.7    5402007.8 
    3100        0.775    2345.4715    22303.264   -1767709.2    129047.16   -1638662.1    5396769.2 
    3200          0.8    2345.8061    22322.291   -1767729.1    129065.57   -1638663.5    5391530.6 
    3300        0.825    2345.1573    22356.309   -1767696.4    129029.88   -1638666.5    5386292.1 
    3400         0.85      2345.39    22405.953   -1767715.6    129042.68   -1638672.9    5381053.5 
    3500        0.875    2345.6095    22452.406   -1767731.4    129054.76   -1638676.7    5375814.9 
    3600          0.9    2345.3886    22484.173   -1767723.2     129042.6   -1638680.6    5370576.4 
    3700        0.925    2345.1219    22505.601   -1767708.3    129027.93   -1638680.4    5365337.8 
    3800         0.95    2345.4098    22529.905   -1767718.5    129043.77   -1638674.7    5360099.2 
    3900        0.975     2345.306    22558.094     -1767710    129038.06     -1638672    5354860.7 
    4000            1    2345.3416    22577.319   -1767719.6    129040.02   -1638679.6    5349622.1 
    4100        1.025    2344.8144    22607.568   -1767696.6    129011.01   -1638685.6    5344383.5 
    4200         1.05    2345.2647    22625.896   -1767717.7    129035.79   -1638681.9      5339145 
    4300        1.075    2345.7374    22636.341   -1767734.1    129061.79   -1638672.3    5333906.4 
    4400          1.1    2345.2713    22668.146   -1767704.5    129036.15   -1638668.3    5328667.8 
    4500        1.125    2345.4565    22675.381   -1767709.9    129046.33   -1638663.6    5323429.3 
    4600         1.15    2346.0663    22669.715   -1767734.9    129079.88     -1638655    5318190.7 
    4700        1.175    2345.9663    22683.814   -1767728.3    129074.38   -1638653.9    5312952.2 
    4800          1.2    2346.4192    22664.249   -1767752.2     129099.3   -1638652.9    5307713.6 
    4900        1.225    2349.3318    22554.659   -1767900.9    129259.55   -1638641.3      5302475 
    5000         1.25    2352.9326    22386.427   -1768087.9    129457.67   -1638630.3    5297236.5 
    5100        1.275    2360.1808    22100.691   -1768493.8    129856.46   -1638637.4    5291997.9 
    5200          1.3    2372.3744    21956.098   -1769171.7    130527.35   -1638644.4    5286759.3 
    5300        1.325     2368.135    22706.434   -1768932.8     130294.1   -1638638.7    5281520.8 
    5400         1.35    2365.9063    23895.487   -1768813.2    130171.48   -1638641.7    5276282.2 
    5500        1.375    2361.2791    25094.528   -1768567.6    129916.89   -1638650.7    5271043.6 
    5600          1.4    2352.4143    26338.349   -1768077.9    129429.15   -1638648.8    5265805.1 
    5700        1.425    2349.1733    27397.516   -1767890.5    129250.84   -1638639.7    5260566.5 
    5800         1.45    2339.6319    28572.464   -1767364.8    128725.87   -1638638.9    5255327.9 
    5900        1.475    2333.5759    29822.774   -1767037.4    128392.67   -1638644.7    5250089.4 
    6000          1.5    2326.7774     31110.82   -1766659.2    128018.62   -1638640.6    5244850.8 
    6100        1.525    2318.4367     32365.02   -1766196.9    127559.71   -1638637.2    5239612.3 
    6200         1.55    2310.9985    33688.762   -1765794.5    127150.47     -1638644    5234373.7 
    6300        1.575    2304.7829    34887.799     -1765455    126808.49   -1638646.6    5229135.1 
    6400          1.6    2296.7809    36032.229     -1765009    126368.22   -1638640.8    5223896.6 
    6500        1.625    2291.4398    37121.736   -1764713.8    126074.35   -1638639.5      5218658 
    6600         1.65    2283.7955      38277.1     -1764301    125653.77   -1638647.3    5213419.4 
    6700        1.675    2277.4956    39406.229   -1763959.3    125307.15   -1638652.1    5208180.9 
    6800          1.7    2270.4846    40593.799   -1763573.8     124921.4   -1638652.4    5202942.3 
    6900        1.725    2262.6105    41785.999   -1763145.7    124488.17   -1638657.5    5197703.7 
    7000         1.75    2255.3299    43104.703   -1762744.2     124087.6   -1638656.6    5192465.2 
    7100        1.775    2247.0145    44685.539   -1762277.4    123630.09   -1638647.3    5187226.6 
    7200          1.8    2236.1024    46365.589   -1761669.3    123029.71   -1638639.6      5181988 
    7300        1.825    2225.5498    48042.454     -1761089     122449.1   -1638639.9    5176749.5 
    7400         1.85    2213.0793    49782.484   -1760405.2    121762.98   -1638642.3    5171510.9 
    7500        1.875    2200.4251    51539.221   -1759709.5    121066.75   -1638642.7    5166272.3 
    7600          1.9    2187.5613     53252.74   -1759010.4    120358.99   -1638651.5    5161033.8 
    7700        1.925    2175.2423    54905.514     -1758340     119681.2   -1638658.8    5155795.2 
    7800         1.95    2163.5544     56561.08   -1757694.9    119038.14   -1638656.8    5150556.7 
    7900        1.975    2152.3695    58184.472   -1757078.6    118422.74   -1638655.9    5145318.1 
    8000            2    2141.7813    59774.059   -1756504.7    117840.18   -1638664.5    5140079.5 
    8100        2.025    2129.1061    61449.358   -1755815.9     117142.8   -1638673.1      5134841 
    8200         2.05    2116.5095    63219.845   -1755115.8    116449.74     -1638666    5129602.4 
    8300        2.075    2104.2676    65026.283   -1754436.2    115776.19     -1638660    5124363.8 
    8400          2.1    2090.1856    66881.083   -1753667.1     115001.4   -1638665.6    5119125.3 
    8500        2.125    2077.1429    68826.475   -1752945.8     114283.8     -1638662    5113886.7 
    8600         2.15    2063.9491    70821.221     -1752210    113557.88   -1638652.1    5108648.1 
    8700        2.175      2051.34    72813.219   -1751514.7    112864.13   -1638650.6    5103409.6 
    8800          2.2    2037.7973    74881.377   -1750775.9    112119.02   -1638656.9      5098171 
    8900        2.225    2024.5294    76963.128     -1750046    111389.02     -1638657    5092932.4 
    9000         2.25    2011.8049     79081.16   -1749342.9    110688.92   -1638653.9    5087693.9 
    9100        2.275    1997.4535     81181.68   -1748552.9    109899.31   -1638653.6    5082455.3 
    9200          2.3    1984.2642    83253.703   -1747828.2    109173.64   -1638654.6    5077216.8 
    9300        2.325    1970.8562    85363.873   -1747088.8    108435.94   -1638652.9    5071978.2 
    9400         2.35     1957.901    87468.856   -1746377.2    107723.14     -1638654    5066739.6 
    9500        2.375    1944.5265    89598.451   -1745648.2    106987.28   -1638660.9    5061501.1 
    9600          2.4    1931.0849    91716.369   -1744905.3    106247.73   -1638657.6    5056262.5 
    9700        2.425    1918.0798    93804.672   -1744185.1     105532.2   -1638652.9    5051023.9 
    9800         2.45    1904.9316     95738.06   -1743461.2    104808.79   -1638652.4    5045785.4 
    9900        2.475    1894.9259    97492.802   -1742914.8    104258.27   -1638656.6    5040546.8 
   10000          2.5    1883.6101    99157.539   -1742291.1    103635.68   -1638655.4    5035308.2 
   10100        2.525    1872.6826    100748.51   -1741687.8    103034.45   -1638653.4    5030069.7 
   10200         2.55    1861.3774    102358.22   -1741072.2    102412.44   -1638659.8    5024831.1 
   10300        2.575    1849.9072    104059.72   -1740449.9    101781.36   -1638668.5    5019592.5 
   10400          2.6    1838.5612    105775.48   -1739828.7     101157.1   -1638671.6      5014354 
   10500        2.625    1827.4971     107485.8   -1739215.8    100548.36   -1638667.4    5009115.4 
   10600         2.65    1816.1609    109204.27   -1738595.1    99924.648   -1638670.5    5003876.8 
   10700        2.675    1804.3288    110962.27   -1737948.1    99273.647   -1638674.4    4998638.3 
   10800          2.7    1793.0967    112704.08   -1737320.8     98655.66   -1638665.2    4993399.7 
   10900        2.725    1782.9758    114415.38   -1736755.1    98098.814   -1638656.3    4988161.2 
   11000         2.75    1771.1101     116102.9   -1736110.3    97445.963   -1638664.3    4982922.6 
   11100        2.775    1758.3833    117772.02   -1735416.7    96745.741     -1638671      4977684 
   11200          2.8    1749.6187    119461.23     -1734930    96263.515   -1638666.5    4972445.5 
   11300        2.825    1741.6413     121138.5   -1734485.3      95824.6   -1638660.7    4967206.9 
   11400         2.85     1736.493    122673.39     -1734208     95541.34   -1638666.7    4961968.3 
   11500        2.875    1730.9357    124012.85   -1733905.8    95235.583   -1638670.2    4956729.8 
   11600          2.9    1726.9038    125299.31   -1733677.3    95013.745   -1638663.6    4951491.2 
   11700        2.925    1721.8138    126595.87     -1733394    94733.696   -1638660.3    4946252.6 
   11800         2.95    1717.0908    127850.34   -1733142.3    94473.836   -1638668.5    4941014.1 
   11900        2.975    1711.5913    129087.44   -1732844.1    94171.257   -1638672.9    4935775.5 
   12000            3    1706.1745    130294.79   -1732545.5    93873.224   -1638672.2    4930536.9 
   12100        3.025    1700.7137    131540.49   -1732244.9    93572.773   -1638672.2    4925298.4 
   12200         3.05    1694.5415    132838.61     -1731904    93233.179   -1638670.9    4920059.8 
   12300        3.075    1691.5184    134161.38     -1731728    93066.853   -1638661.2    4914821.3 
   12400          3.1    1687.5459    135470.67   -1731499.6    92848.285   -1638651.3    4909582.7 
   12500        3.125    1683.7622    136713.64   -1731291.8    92640.109   -1638651.7    4904344.1 
   12600         3.15    1679.3427    137893.22   -1731055.2    92396.951   -1638658.2    4899105.6 
   12700        3.175    1677.4117     139007.8   -1730949.8    92290.707   -1638659.1      4893867 
   12800          3.2     1673.432    140049.51   -1730726.5    92071.744   -1638654.8    4888628.4 
   12900        3.225    1669.5038    141140.66   -1730506.5    91855.617   -1638650.9    4883389.9 
   13000         3.25    1663.8304    142343.99   -1730200.3    91543.464   -1638656.9    4878151.3 
   13100        3.275    1658.6295     143604.1     -1729921    91257.313   -1638663.7    4872912.7 
   13200          3.3    1651.7293    144842.52   -1729541.4    90877.665   -1638663.7    4867674.2 
   13300        3.325    1643.5981    146094.13   -1729093.5    90430.291   -1638663.2    4862435.6 
   13400         3.35    1636.2928    147315.09   -1728688.7    90028.357   -1638660.3      4857197 
   13500        3.375    1628.2392    148573.02   -1728240.3    89585.251   -1638655.1    4851958.5 
   13600          3.4    1619.3266    149809.57   -1727745.8    89094.879   -1638650.9    4846719.9 
   13700        3.425    1610.7404    151061.83   -1727275.6    88622.472   -1638653.1    4841481.3 
   13800         3.45    1601.1588    152372.04   -1726755.2    88095.291   -1638659.9    4836242.8 
   13900        3.475    1591.4096    153736.41   -1726221.8    87558.896   -1638662.9    4831004.2 
   14000          3.5    1581.9729    155115.48   -1725702.5    87039.688   -1638662.8    4825765.7 
   14100        3.525    1571.2662    156671.32   -1725113.6    86450.611     -1638663    4820527.1 
   14200         3.55    1560.8546     158320.6   -1724540.4    85877.769   -1638662.7    4815288.5 
   14300        3.575    1549.4078    160111.33   -1723914.9    85247.968   -1638666.9      4810050 
   14400          3.6    1537.9021    162004.29   -1723282.9    84614.925     -1638668    4804811.4 
   14500        3.625    1525.5932    164003.63   -1722598.3    83937.697   -1638660.6    4799572.8 
   14600         3.65    1512.7074    166051.08   -1721885.4     83228.72   -1638656.7    4794334.3 
   14700        3.675    1499.9392    168180.71   -1721188.1    82526.222   -1638661.9    4789095.7 
   14800          3.7    1486.4735    170334.55   -1720447.5    81785.339   -1638662.2    4783857.1 
   14900        3.725    1473.6284    172516.98     -1719745    81078.609   -1638666.4    4778618.6 
   15000         3.75    1459.9295     174783.7   -1718993.9    80324.899     -1638669      4773380 
   15100        3.775    1446.0249    177117.38   -1718221.3    79559.869   -1638661.5    4768141.4 
   15200          3.8    1430.9749    179466.51   -1717382.8    78731.821     -1638651    4762902.9 
   15300        3.825    1416.5911    181852.17   -1716585.8    77940.431   -1638645.4    4757664.3 
   15400         3.85    1401.8324    184283.29   -1715768.3    77128.414   -1638639.9    4752425.7 
   15500        3.875    1385.3877    186734.51   -1714860.1    76223.628   -1638636.5    4747187.2 
   15600          3.9    1369.2556    189164.32   -1713968.1    75336.048     -1638632    4741948.6 
   15700        3.925    1354.9754    191588.85   -1713181.9    74550.353   -1638631.6    4736710.1 
   15800         3.95    1340.2116    194057.59   -1712374.9    73738.054   -1638636.9    4731471.5 
   15900        3.975    1324.9449    196478.42   -1711538.5    72898.082   -1638640.4    4726232.9 
   16000            4    1309.4194    198821.22   -1710686.4    72043.874   -1638642.5    4720994.4 
   16100        4.025    1296.3752    201099.56   -1709970.3    71326.187   -1638644.1    4715755.8 
   16200         4.05    1281.7656    203415.86   -1709164.5     70522.37   -1638642.1    4710517.2 
   16300        4.075    1267.5674    205696.44   -1708378.6    69741.191   -1638637.4    4705278.7 
   16400          4.1    1252.5619    208032.04   -1707547.7    68915.593   -1638632.1    4700040.1 
   16500        4.125    1238.9343    210387.57   -1706797.6    68165.806   -1638631.8    4694801.5 
   16600         4.15    1224.6324    212784.11   -1706015.7    67378.921   -1638636.8      4689563 
   16700        4.175    1208.9749    215198.26   -1705158.6     66517.45   -1638641.2    4684324.4 
   16800          4.2    1195.3744    217558.38   -1704405.9    65769.154   -1638636.7    4679085.8 
   16900        4.225    1182.4516    219879.62   -1703687.4    65058.146   -1638629.2    4673847.3 
   17000         4.25     1170.152    222176.09   -1703011.5    64381.424   -1638630.1    4668608.7 
   17100        4.275    1159.1084    224505.35   -1702409.4    63773.808   -1638635.6    4663370.2 
   17200          4.3    1147.9148    226812.32   -1701790.8    63157.937   -1638632.9    4658131.6 
   17300        4.325    1138.4266     229043.7   -1701262.7    62635.903   -1638626.8      4652893 
   17400         4.35    1129.5461    231151.01   -1700773.2    62147.296   -1638625.9    4647654.5 
   17500        4.375    1122.6628    233098.11   -1700394.2    61768.583   -1638625.6    4642415.9 
   17600          4.4    1115.1052    234991.23   -1699976.1    61352.766   -1638623.3    4637177.3 
   17700        4.425    1108.0624    236848.13   -1699582.4    60965.273   -1638617.1    4631938.8 
   17800         4.45    1101.8037    238736.33   -1699235.6    60620.919   -1638614.6    4626700.2 
   17900        4.475    1094.8246    240663.19   -1698857.6    60236.933   -1638620.7    4621461.6 
   18000          4.5    1088.2547    242538.85   -1698504.4    59875.457   -1638628.9    4616223.1 
   18100        4.525    1082.0431    244346.13     -1698165      59533.7   -1638631.3    4610984.5 
   18200         4.55    1076.7672    246103.53   -1697869.3    59243.418   -1638625.9    4605745.9 
   18300        4.575    1071.9124     247805.1   -1697607.3    58976.307     -1638631    4600507.4 
   18400          4.6    1067.8509    249421.58   -1697396.6    58752.846   -1638643.8    4595268.8 
   18500        4.625    1064.0478    250973.53   -1697189.9    58543.601   -1638646.2    4590030.2 
   18600         4.65    1061.7617    252435.28     -1697060    58417.821   -1638642.2    4584791.7 
   18700        4.675    1059.8578    253807.39   -1696958.6     58313.07   -1638645.5    4579553.1 
   18800          4.7    1057.5052    255127.48   -1696836.1    58183.628   -1638652.4    4574314.6 
   18900        4.725    1054.7546    256395.71   -1696681.2    58032.292   -1638648.9      4569076 
   19000         4.75     1053.646    257523.12   -1696607.1      57971.3   -1638635.8    4563837.4 
   19100        4.775    1050.5796    258638.47   -1696431.7    57802.583   -1638629.1    4558598.9 
   19200          4.8    1048.6688    259687.03   -1696322.3    57697.453   -1638624.9    4553360.3 
   19300        4.825    1045.3928    260739.88   -1696135.9    57517.209   -1638618.7    4548121.7 
   19400         4.85    1042.3527    261713.66   -1695965.1    57349.945   -1638615.1    4542883.2 
   19500        4.875    1039.8693     262576.9   -1695833.6     57213.31   -1638620.3    4537644.6 
   19600          4.9    1035.7926     263445.2   -1695610.2    56989.006   -1638621.2      4532406 
   19700        4.925    1032.0438    264318.58   -1695393.4    56782.752   -1638610.7    4527167.5 
   19800         4.95    1025.9986    265210.99   -1695057.7    56450.144   -1638607.6    4521928.9 
   19900        4.975    1019.9346    266139.55   -1694726.2    56116.503   -1638609.7    4516690.3 
   20000            5    1013.0104    267136.71   -1694339.5    55735.541   -1638603.9    4511451.8 
   20100        5.025    1006.2125    268187.17   -1693958.1    55361.521   -1638596.6    4506213.2 
   20200         5.05    998.21785    269391.73   -1693517.9    54921.657   -1638596.3    4500974.7 
   20300        5.075    988.50626    270737.96   -1692987.3    54387.328     -1638600    4495736.1 
   20400          5.1    978.25967    272267.12   -1692423.6    53823.563     -1638600    4490497.5 
   20500        5.125    967.35437    273960.47     -1691821    53223.557   -1638597.4      4485259 
   20600         5.15    954.65336    275797.71   -1691122.3    52524.751   -1638597.6    4480020.4 
   20700        5.175    943.17567    277735.24   -1690488.5    51893.252   -1638595.3    4474781.8 
   20800          5.2    929.13361     279858.2   -1689706.5    51120.662   -1638585.9    4469543.3 
   20900        5.225    914.95414    282136.12   -1688920.6    50340.511   -1638580.1    4464304.7 
   21000         5.25    899.58273    284509.31   -1688079.2    49494.781   -1638584.4    4459066.1 
   21100        5.275    885.05524    286956.53   -1687277.8    48695.482   -1638582.3    4453827.6 
   21200          5.3    869.02733    289504.53   -1686391.4    47813.632   -1638577.8      4448589 
   21300        5.325    853.36795    292147.79   -1685532.8    46952.057   -1638580.8    4443350.4 
   21400         5.35    837.58681    294817.56   -1684667.6    46083.784   -1638583.8    4438111.9 
   21500        5.375    822.43657    297509.68   -1683832.8    45250.221   -1638582.5    4432873.3 
   21600          5.4    805.97453       300284   -1682924.1    44344.485   -1638579.6    4427634.7 
   21700        5.425    789.67928    303083.93     -1682031    43447.925   -1638583.1    4422396.2 
   21800         5.45    773.84171    305932.96   -1681165.4    42576.547   -1638588.9    4417157.6 
   21900        5.475     757.5316    308772.09   -1680263.8    41679.169   -1638584.6    4411919.1 
   22000          5.5    741.40269     311516.3   -1679368.1    40791.761   -1638576.3    4406680.5 
   22100        5.525    725.15905    314228.29   -1678471.2    39898.041   -1638573.2    4401441.9 
   22200         5.55    709.46797    316893.76   -1677612.4    39034.722   -1638577.6    4396203.4 
   22300        5.575    693.01004    319564.22   -1676703.4    38129.211   -1638574.2    4390964.8 
   22400          5.6    676.99336    322315.31   -1675808.7    37247.978   -1638560.7    4385726.2 
   22500        5.625     660.8536    325070.09   -1674912.3    36359.974   -1638552.3    4380487.7 
   22600         5.65    645.25028    327892.68   -1674054.7    35501.483   -1638553.2    4375249.1 
   22700        5.675    630.44882    330720.19   -1673242.4    34687.111   -1638555.3    4370010.5 
   22800          5.7    615.97465    333498.63   -1672433.4    33890.747   -1638542.7      4364772 
   22900        5.725    602.30093       336307   -1671652.7    33138.422   -1638514.3    4359533.4 
   23000         5.75    589.95446    339105.02   -1670930.3    32459.123   -1638471.1    4354294.8 
   23100        5.775    578.25923    341944.29   -1670205.6    31815.655   -1638389.9    4349056.3 
   23200          5.8    568.46483    344780.57   -1669517.8     31276.77     -1638241    4343817.7 
   23300        5.825    560.79482    347590.44   -1668844.9    30854.769   -1637990.1    4338579.2 
   23400         5.85    557.27519    350374.06   -1668206.8    30661.119   -1637545.7    4333340.6 
   23500        5.875    558.16296    353182.27   -1667560.5    30709.964   -1636850.5      4328102 
   23600          5.9    561.82423    356027.89   -1666887.9    30911.406   -1635976.5    4322863.5 
   23700        5.925    563.96467    358853.99   -1666196.5    31029.173   -1635167.3    4317624.9 
   23800         5.95    566.21554    361686.84   -1665594.1    31153.015   -1634441.1    4312386.3 
   23900        5.975    567.53328    364508.36   -1664949.4    31225.517   -1633723.9    4307147.8 
   24000            6    569.11124    367421.21     -1664240    31312.335   -1632927.7    4301909.2 
   24100        6.025    573.22578    370327.29   -1663619.3    31538.716   -1632080.6    4296670.6 
   24200         6.05    576.89079    373222.09   -1662954.9    31740.364   -1631214.5    4291432.1 
   24300        6.075    580.22041    376042.53   -1662271.1    31923.559   -1630347.5    4286193.5 
   24400          6.1    584.52327    378830.24   -1661588.4    32160.301   -1629428.1    4280954.9 
   24500        6.125    591.62832     381650.7     -1660871    32551.219   -1628319.8    4275716.4 
   24600         6.15    600.28918     384412.2   -1660110.2    33027.736   -1627082.4    4270477.8 
   24700        6.175    609.53235    387141.63   -1659290.2    33536.293   -1625753.9    4265239.2 
   24800          6.2    618.61223    389804.22   -1658434.7    34035.865   -1624398.8    4260000.7 
   24900        6.225    627.97306    392375.98   -1657510.4    34550.895   -1622959.5    4254762.1 
   25000         6.25    634.68867    394916.73   -1656509.2    34920.387   -1621588.8    4249523.6 
   25100        6.275    641.19557    397516.96   -1655481.5    35278.394   -1620203.1      4244285 
   25200          6.3    646.42094    400146.32     -1654319    35565.893   -1618753.1    4239046.4 
   25300        6.325    653.62077    402873.16   -1653053.7    35962.025   -1617091.7    4233807.9 
   25400         6.35    661.71755    405754.67   -1651615.3    36407.508   -1615207.8    4228569.3 
   25500        6.375     668.4344    408712.97   -1649869.3    36777.067   -1613092.2    4223330.7 
   25600          6.4    675.84846    411766.58   -1648070.1    37184.986   -1610885.1    4218092.2 
   25700        6.425    676.77925    414832.39   -1646043.7    37236.198   -1608807.5    4212853.6 
   25800         6.45    676.70887    418141.57   -1643913.6    37232.326   -1606681.3      4207615 
   25900        6.475    682.28522    421680.84   -1641790.5    37539.135   -1604251.4    4202376.5 
   26000          6.5    692.99027    425494.26   -1639537.2    38128.124   -1601409.1    4197137.9 
   26100        6.525    708.40949    429492.02   -1637205.7    38976.485   -1598229.2    4191899.3 
   26200         6.55    727.50871    433680.55   -1634913.6    40027.318   -1594886.3    4186660.8 
   26300        6.575    745.69523    438014.88   -1632539.9    41027.935     -1591512    4181422.2 
   26400          6.6    764.99052    442468.21   -1630187.5    42089.556   -1588097.9    4176183.7 
   26500        6.625    783.77082    447197.44   -1627760.7    43122.843   -1584637.9    4170945.1 
   26600         6.65    802.04741    451953.97   -1625271.6    44128.416   -1581143.2    4165706.5 
   26700        6.675    820.68963    456920.02   -1622803.3    45154.105   -1577649.2      4160468 
   26800          6.7    836.53949    462057.42   -1620219.1     46026.16   -1574192.9    4155229.4 
   26900        6.725    854.52375    467183.51   -1617788.8    47015.649   -1570773.1    4149990.8 
   27000         6.75    871.59267    472335.09   -1615301.4    47954.776   -1567346.6    4144752.3 
   27100        6.775    891.04671    477528.33   -1612917.4    49025.131   -1563892.3    4139513.7 
   27200          6.8    910.97222    482630.86   -1610546.6    50121.427   -1560425.2    4134275.1 
   27300        6.825    931.57389    487735.27   -1608232.7    51254.925   -1556977.8    4129036.6 
   27400         6.85    953.02399    492812.66   -1605973.6    52435.104   -1553538.5      4123798 
   27500        6.875    973.03083    497940.95   -1603640.2    53535.874   -1550104.3    4118559.4 
   27600          6.9    993.95604    503144.88   -1601387.5    54687.173   -1546700.3    4113320.9 
   27700        6.925    1013.6908    508324.54     -1599104    55772.972     -1543331    4108082.3 
   27800         6.95    1032.4435    513473.35   -1596775.5    56804.743   -1539970.8    4102843.7 
   27900        6.975    1052.7336    518684.24   -1594528.6    57921.096   -1536607.5    4097605.2 
   28000            7    1071.1277    524070.84   -1592191.9    58933.137   -1533258.8    4092366.6 
   28100        7.025    1089.5665    529488.87   -1589878.9    59947.633   -1529931.2    4087128.1 
   28200         7.05    1107.0824    534977.41   -1587504.9    60911.353   -1526593.5    4081889.5 
   28300        7.075    1128.5604    540426.02   -1585298.2    62093.064   -1523205.1    4076650.9 
   28400          7.1    1149.3537    545897.66   -1582997.9    63237.106   -1519760.8    4071412.4 
   28500        7.125    1175.5143    550783.11     -1580968    64676.455   -1516291.6    4066173.8 
   28600         7.15    1211.3399    554792.38   -1579431.4    66647.571   -1512783.9    4060935.2 
   28700        7.175    1244.8115     558547.7   -1577685.8    68489.166   -1509196.6    4055696.7 
   28800          7.2    1279.6558    562600.01   -1575903.4    70406.291   -1505497.1    4050458.1 
   28900        7.225    1322.4975    567088.66   -1574460.7    72763.429   -1501697.3    4045219.5 
   29000         7.25    1359.6035    571773.86   -1572711.7     74804.99   -1497906.7      4039981 
   29100        7.275     1403.315    575835.93   -1571301.8    77209.985   -1494091.8    4034742.4 
   29200          7.3     1449.255     579463.3   -1569970.6    79737.588     -1490233    4029503.8 
   29300        7.325    1490.6915    583266.22   -1568381.1    82017.414   -1486363.7    4024265.3 
   29400         7.35    1537.5652    587954.83   -1567112.1     84596.39   -1482515.7    4019026.7 
   29500        7.375    1587.2045    592842.85   -1566003.7    87327.529   -1478676.2    4013788.1 
   29600          7.4    1636.2487    597168.78   -1564897.9     90025.93     -1474872    4008549.6 
   29700        7.425    1689.0218     600964.1   -1564034.8    92929.492   -1471105.3      4003311 
   29800         7.45     1736.346    605017.99   -1562899.6    95533.255   -1467366.3    3998072.5 
   29900        7.475     1783.629    610029.31   -1561784.8    98134.751   -1463650.1    3992833.9 
   30000          7.5    1821.0232    615375.79   -1560242.3    100192.17   -1460050.1    3987595.3 
   30100        7.525    1853.1528    620815.14   -1558494.9    101959.93     -1456535    3982356.8 
   30200         7.55    1880.2532    626481.77   -1556565.4    103450.98   -1453114.5    3977118.2 
   30300        7.575    1902.4319    632746.56   -1554436.9    104671.25   -1449765.6    3971879.6 
   30400          7.6    1919.9651    639158.43   -1552125.2    105635.92   -1446489.3    3966641.1 
   30500        7.625    1934.2798    645486.43   -1549747.2    106423.51   -1443323.7    3961402.5 
   30600         7.65    1946.8789    651634.98   -1547403.9    107116.71   -1440287.1    3956163.9 
   30700        7.675    1956.5054     657798.2   -1545005.3    107646.36     -1437359    3950925.4 
   30800          7.7    1964.0361    663971.14   -1542550.5     108060.7   -1434489.8    3945686.8 
   30900        7.725    1971.8545    670034.21   -1540143.1    108490.86   -1431652.2    3940448.2 
   31000         7.75    1978.2402    676071.57   -1537654.9     108842.2   -1428812.7    3935209.7 
   31100        7.775     1986.415     682120.4   -1535190.1    109291.98   -1425898.1    3929971.1 
   31200          7.8    1996.8623    688297.48   -1532762.7    109866.79   -1422895.9    3924732.6 
   31300        7.825    2009.2831    694446.81   -1530401.2    110550.17   -1419851.1      3919494 
   31400         7.85    2019.6757    700379.57   -1527981.4    111121.97   -1416859.5    3914255.4 
   31500        7.875     2029.425    705968.41   -1525660.2    111658.38   -1414001.8    3909016.9 
   31600          7.9    2035.7058    711490.88   -1523324.5    112003.94   -1411320.6    3903778.3 
   31700        7.925    2038.6639    716877.27   -1520930.8     112166.7   -1408764.1    3898539.7 
   31800         7.95    2041.9157    721977.72   -1518636.5    112345.61   -1406290.9    3893301.2 
   31900        7.975    2043.4028    727175.18   -1516169.8    112427.43   -1403742.4    3888062.6 
   32000            8    2049.2826       732388   -1513862.9    112750.94     -1401112      3882824 
   32100        8.025    2053.6542    737209.62   -1511494.7    112991.46   -1398503.2    3877585.5 
   32200         8.05    2062.0504    741442.21   -1509495.8    113453.41   -1396042.4    3872346.9 
   32300        8.075    2065.9969     744820.2   -1507389.2    113670.55   -1393718.7    3867108.3 
   32400          8.1    2069.9514    747681.43   -1505399.2    113888.13   -1391511.1    3861869.8 
   32500        8.125    2073.3117    750828.33   -1503442.6    114073.01   -1389369.6    3856631.2 
   32600         8.15    2073.8143    754389.48   -1501381.3    114100.66   -1387280.7    3851392.6 
   32700        8.175    2082.3657    757880.61   -1499795.4    114571.16   -1385224.2    3846154.1 
   32800          8.2    2087.5519    761410.88   -1498057.3     114856.5   -1383200.8    3840915.5 
   32900        8.225    2080.0658    764916.28   -1495619.8    114444.62   -1381175.2      3835677 
   33000         8.25     2091.464     768234.4   -1494268.5    115071.74   -1379196.8    3830438.4 
   33100        8.275     2085.416    772282.46   -1491868.3    114738.99   -1377129.3    3825199.8 
   33200          8.3    2087.6777    776680.61   -1489806.9    114863.42   -1374943.5    3819961.3 
   33300        8.325    2103.7945    781012.82   -1488471.7    115750.17   -1372721.5    3814722.7 
   33400         8.35    2093.8276    785902.33   -1485724.1    115201.79   -1370522.3    3809484.1 
   33500        8.375    2109.1314    790216.69   -1484289.2     116043.8   -1368245.4    3804245.6 
   33600          8.4    2123.7277    794711.54   -1482612.7    116846.88   -1365765.8      3799007 
   33700        8.425    2135.2983    799035.86   -1480481.8    117483.49   -1362998.3    3793768.4 
   33800         8.45    2169.3181    803203.34   -1479495.6    119355.25   -1360140.4    3788529.9 
   33900        8.475    2181.5621    807572.58   -1477596.6    120028.91   -1357567.7    3783291.3 
   34000          8.5    2207.5616       811573   -1476604.5     121459.4   -1355145.1    3778052.7 
   34100        8.525     2231.106    815683.28   -1475423.7    122754.81   -1352668.9    3772814.2 
   34200         8.55    2256.9479    819780.65   -1474243.8    124176.62   -1350067.1    3767575.6 
   34300        8.575    2290.7651    823992.24   -1473510.7    126037.23   -1347473.5    3762337.1 
   34400          8.6    2309.3446    829043.65     -1472075    127059.47   -1345015.5    3757098.5 
   34500        8.625    2337.7147    834550.38   -1471186.1    128620.38   -1342565.7    3751859.9 
   34600         8.65    2359.0372    840357.17     -1469631    129793.54   -1339837.4    3746621.4 
   34700        8.675    2390.3519    846595.94   -1468263.3    131516.47   -1336746.8    3741382.8 
   34800          8.7    2414.6064    853709.44   -1466415.8    132850.94   -1333564.8    3736144.2 
   34900        8.725    2434.5882    861299.18   -1464472.9    133950.33   -1330522.5    3730905.7 
   35000         8.75    2454.2067     869279.6   -1462529.1    135029.74   -1327499.4    3725667.1 
   35100        8.775    2469.4856    877407.02   -1460196.2    135870.38   -1324325.8    3720428.5 
   35200          8.8    2490.3108    885626.58   -1458099.6    137016.18   -1321083.4      3715190 
   35300        8.825    2502.2591    894023.09   -1455630.6    137673.57     -1317957    3709951.4 
   35400         8.85    2514.8124    902545.33     -1453191    138364.25   -1314826.7    3704712.8 
   35500        8.875    2529.6053    910879.41   -1450632.3    139178.15   -1311454.1    3699474.3 
   35600          8.9    2539.5802    918991.75   -1447878.3    139726.96   -1308151.3    3694235.7 
   35700        8.925    2550.4078    927182.08   -1445161.4     140322.7   -1304838.7    3688997.1 
   35800         8.95    2560.3448    935095.51   -1442368.4    140869.43   -1301498.9    3683758.6 
   35900        8.975    2577.0308     942066.7   -1439881.6    141787.49   -1298094.1      3678520 
   36000            9    2593.5389    948175.28   -1437332.5    142695.76   -1294636.7    3673281.5 
   36100        9.025    2609.1204    953894.14     -1434722    143553.05     -1291169    3668042.9 
   36200         9.05    2628.2067    958940.37   -1432291.3    144603.17   -1287688.1    3662804.3 
   36300        9.075    2653.3407    963563.19   -1430128.9    145986.04   -1284142.9    3657565.8 
   36400          9.1    2659.5382    968021.94   -1426890.9    146327.02   -1280563.8    3652327.2 
   36500        9.125    2656.6455    971760.33     -1423187    146167.86   -1277019.1    3647088.6 
   36600         9.15      2668.63    976168.23   -1420330.5    146827.25   -1273503.2    3641850.1 
   36700        9.175    2665.5879       981564   -1416600.9    146659.87   -1269941.1    3636611.5 
   36800          9.2    2669.7501    986621.72   -1413237.5    146888.87   -1266348.6    3631372.9 
   36900        9.225    2666.0337    991807.76   -1409468.8     146684.4   -1262784.4    3626134.4 
   37000         9.25     2654.011    996998.24   -1405284.1    146022.91   -1259261.2    3620895.8 
   37100        9.275    2651.5514    1001995.7   -1401633.4    145887.59   -1255745.8    3615657.2 
   37200          9.3     2631.634    1007396.7   -1397023.2    144791.74   -1252231.5    3610418.7 
   37300        9.325    2628.2764      1012488   -1393357.6    144607.01   -1248750.6    3605180.1 
   37400         9.35    2609.6321    1017172.2   -1388898.3     143581.2   -1245317.1    3599941.6 
   37500        9.375    2603.9688    1022180.6     -1385179    143269.61   -1241909.4      3594703 
   37600          9.4    2591.4226    1028073.1   -1381080.2    142579.32   -1238500.9    3589464.4 
   37700        9.425    2581.6598    1034529.3   -1377116.9    142042.17   -1235074.7    3584225.9 
   37800         9.45    2571.3878    1041510.2   -1373065.5    141477.01   -1231588.5    3578987.3 
   37900        9.475    2563.4753    1048965.2   -1369195.2    141041.67   -1228153.5    3573748.7 
   38000          9.5    2555.0745    1057185.5   -1365277.1    140579.46   -1224697.7    3568510.2 
   38100        9.525    2545.4018    1065873.8   -1361248.8    140047.27   -1221201.5    3563271.6 
   38200         9.55    2538.4089    1075210.1   -1357322.8    139662.52   -1217660.3      3558033 
   38300        9.575     2530.318    1085207.3     -1353384    139217.36   -1214166.7    3552794.5 
   38400          9.6    2521.2088    1095551.3   -1349492.6    138716.18   -1210776.4    3547555.9 
   38500        9.625    2506.1211    1106063.8   -1345339.5    137886.05   -1207453.4    3542317.3 
   38600         9.65    2494.7536      1116927     -1341353    137260.62   -1204092.4    3537078.8 
   38700        9.675    2479.8171    1127028.7   -1337114.1    136438.82   -1200675.3    3531840.2 
   38800          9.7    2465.2518    1136548.1     -1332998    135637.44   -1197360.5    3526601.6 
   38900        9.725    2445.6195    1145452.2   -1328690.8    134557.28   -1194133.5    3521363.1 
   39000         9.75    2423.8621    1153724.3   -1324383.8    133360.19   -1191023.7    3516124.5 
   39100        9.775     2400.443      1161798   -1320101.5    132071.68   -1188029.9      3510886 
   39200          9.8    2380.7605      1169893     -1316181    130988.75   -1185192.3    3505647.4 
   39300        9.825    2358.9345    1177974.9   -1312217.9    129787.89     -1182430    3500408.8 
   39400         9.85    2342.5295      1185551   -1308532.6     128885.3   -1179647.3    3495170.3 
   39500        9.875    2331.7078    1192507.3   -1305066.5    128289.89   -1176776.7    3489931.7 
   39600          9.9    2323.6878    1199341.4     -1301679    127848.63   -1173830.4    3484693.1 
   39700        9.925    2312.5937    1206004.2   -1298109.4    127238.24   -1170871.1    3479454.6 
   39800         9.95    2298.5725    1212628.4   -1294436.5    126466.79   -1167969.7      3474216 
   39900        9.975    2280.9277    1219299.4   -1290663.8    125495.98   -1165167.8    3468977.4 
   40000           10    2263.8229      1225316   -1287006.9    124554.88     -1162452    3463738.9 
   40100       10.025    2242.6037      1230630   -1283170.4    123387.41   -1159782.9    3458500.3 
   40200        10.05     2222.118    1235068.1   -1279366.4    122260.29   -1157106.1    3453261.7 
   40300       10.075    2197.6636    1239158.1     -1275266    120914.82   -1154351.2    3448023.2 
   40400         10.1    2175.1406    1243606.4   -1271189.1    119675.61   -1151513.5    3442784.6 
   40500       10.125    2155.1128    1248556.2   -1267267.1    118573.68   -1148693.4    3437546.1 
   40600        10.15    2127.0309    1254257.3   -1263016.7    117028.62   -1145988.1    3432307.5 
   40700       10.175    2097.1359    1260889.6   -1258780.8    115383.81     -1143397    3427068.9 
   40800         10.2    2062.4881    1268249.8   -1254358.1     113477.5   -1140880.6    3421830.4 
   40900       10.225     2028.251    1276423.1   -1250025.6    111593.78   -1138431.8    3416591.8 
   41000        10.25    1989.6201    1284992.9   -1245533.8    109468.32   -1136065.5    3411353.2 
   41100       10.275    1949.3843    1294309.5   -1241012.4    107254.56   -1133757.8    3406114.7 
   41200         10.3    1906.4863    1304390.1   -1236328.8    104894.32   -1131434.5    3400876.1 
   41300       10.325    1862.0813    1314480.3   -1231540.8    102451.17   -1129089.6    3395637.5 
   41400        10.35    1817.2886    1324876.8   -1226743.5    99986.691   -1126756.8      3390399 
   41500       10.375    1766.9251    1335400.9   -1221699.1    97215.708   -1124483.4    3385160.4 
   41600         10.4    1715.0629    1346142.7   -1216622.9    94362.266   -1122260.6    3379921.8 
   41700       10.425    1658.4364    1356762.7   -1211298.7    91246.688     -1120052    3374683.3 
   41800        10.45     1608.291    1367333.6   -1206313.2    88487.704   -1117825.5    3369444.7 
   41900       10.475    1558.7348    1377652.6   -1201259.5    85761.139   -1115498.4    3364206.1 
   42000         10.5    1513.9334      1388013   -1196318.6    83296.175   -1113022.4    3358967.6 
   42100       10.525    1475.1294    1398371.2   -1191529.3    81161.189   -1110368.1      3353729 
   42200        10.55     1445.661    1408554.9   -1187115.9     79539.85   -1107576.1    3348490.5 
   42300       10.575    1418.8832    1418318.7   -1182717.1     78066.54   -1104650.6    3343251.9 
   42400         10.6     1393.186    1427508.1   -1178368.1    76652.691   -1101715.4    3338013.3 
   42500       10.625    1371.7605    1435776.3   -1174338.9    75473.863     -1098865    3332774.8 
   42600        10.65    1351.4591    1442551.8   -1170439.4    74356.888   -1096082.5    3327536.2 
   42700       10.675    1333.5849    1448514.5   -1166746.2    73373.456   -1093372.8    3322297.6 
   42800         10.7    1316.7447    1453852.9     -1163095    72446.911   -1090648.1    3317059.1 
   42900       10.725    1299.5264    1459353.5     -1159403    71499.566   -1087903.5    3311820.5 
   43000        10.75    1287.2576    1465630.4   -1155930.1    70824.538   -1085105.5    3306581.9 
   43100       10.775    1273.8364    1471951.4   -1152379.8    70086.108   -1082293.7    3301343.4 
   43200         10.8    1259.8201    1478445.1   -1148811.6    69314.935   -1079496.7    3296104.8 
   43300       10.825    1242.4006    1485081.1   -1144990.4    68356.523   -1076633.9    3290866.2 
   43400        10.85    1231.6382    1491892.2     -1141450    67764.374   -1073685.6    3285627.7 
   43500       10.875    1219.9617      1498827   -1137762.8    67121.941   -1070640.9    3280389.1 
   43600         10.9    1209.3376    1506413.6   -1134143.8    66537.402   -1067606.4    3275150.5 
   43700       10.925    1199.9893    1514372.1   -1130562.1    66023.064   -1064539.1      3269912 
   43800        10.95    1189.9363    1522519.7   -1126863.8     65469.95   -1061393.8    3264673.4 
   43900       10.975    1182.8628    1531251.4   -1123230.7    65080.771     -1058150    3259434.9 
   44000           11    1173.2776    1540344.5   -1119357.3    64553.395   -1054803.9    3254196.3 
   44100       11.025    1161.1484    1549774.9   -1115161.5    63886.048   -1051275.5    3248957.7 
   44200        11.05    1154.1211    1559725.2   -1110862.7     63499.41   -1047363.3    3243719.2 
   44300       11.075    1152.2295    1570370.9   -1106321.9    63395.331   -1042926.6    3238480.6 
   44400         11.1    1153.1507    1581253.8   -1101596.9     63446.02   -1038150.9      3233242 
   44500       11.125    1152.1135    1592696.4   -1096773.9    63388.953     -1033385    3228003.5 
   44600        11.15    1145.2251    1604677.5   -1091718.5    63009.952   -1028708.5    3222764.9 
   44700       11.175    1138.0681    1616802.3   -1086469.5    62616.176   -1023853.3    3217526.3 
   44800         11.2    1136.3935    1628888.4   -1081066.7    62524.039   -1018542.6    3212287.8 
   44900       11.225     1135.425    1641018.6   -1075271.5    62470.755   -1012800.7    3207049.2 
   45000        11.25    1139.6855    1653041.5   -1069427.3    62705.166   -1006722.1    3201810.6 
   45100       11.275    1139.4199    1664723.8   -1063189.2    62690.554   -1000498.7    3196572.1 
   45200         11.3    1142.2039    1675388.9   -1057224.3    62843.729   -994380.53    3191333.5 
   45300       11.325    1136.2936    1684981.6   -1050847.3    62518.547    -988328.8      3186095 
   45400        11.35    1137.3369    1694386.3   -1044677.4    62575.947   -982101.48    3180856.4 
   45500       11.375    1136.5919    1703893.4   -1038277.7    62534.956   -975742.76    3175617.8 
   45600         11.4    1134.0045    1713999.5   -1031677.6    62392.597   -969284.97    3170379.3 
   45700       11.425    1134.0241    1724731.8     -1025039    62393.677   -962645.33    3165140.7 
   45800        11.45    1136.3701    1735861.5   -1018150.7    62522.752   -955627.93    3159902.1 
   45900       11.475    1146.4176    1747640.7   -1011133.9    63075.565   -948058.36    3154663.6 
   46000         11.5     1160.708    1760015.5   -1003977.3    63861.818    -940115.5      3149425 
   46100       11.525    1179.3583    1773224.4    -996912.9    64887.951   -932024.95    3144186.4 
   46200        11.55    1200.6551    1786978.5   -989702.97    66059.697   -923643.27    3138947.9 
   46300       11.575    1227.4195    1800541.5   -982520.79    67532.264   -914988.53    3133709.3 
   46400         11.6    1260.9436    1814423.9    -975413.1    69376.751   -906036.35    3128470.7 
   46500       11.625    1298.9331    1828913.6   -968402.77     71466.92   -896935.85    3123232.2 
   46600        11.65    1335.0934    1843704.6   -961247.94    73456.451   -887791.49    3117993.6 
   46700       11.675     1377.308    1858842.6   -954390.63    75779.089   -878611.54      3112755 
   46800         11.7    1417.1293    1873892.2   -947308.23    77970.045   -869338.18    3107516.5 
   46900       11.725    1466.6749      1889662   -940637.03     80696.03      -859941    3102277.9 
   47000        11.75    1515.4194      1905625   -933853.76    83377.934   -850475.83    3097039.4 
   47100       11.775    1567.1942    1921855.5   -927229.44    86226.569   -841002.87    3091800.8 
   47200         11.8    1622.2518    1937601.4   -920726.26    89255.822   -831470.44    3086562.2 
   47300       11.825    1677.3563    1952834.9   -914121.19    92287.655   -821833.53    3081323.7 
   47400        11.85    1735.0641    1968176.1   -907653.03    95462.722   -812190.31    3076085.1 
   47500       11.875    1790.2301    1983081.1   -901128.45    98497.939   -802630.52    3070846.5 
   47600         11.9    1845.4251    1997722.8   -894616.99    101534.76   -793082.23      3065608 
   47700       11.925    1897.6477    2011950.9   -887993.58    104408.03   -783585.55    3060369.4 
   47800        11.95    1951.1664    2026642.4   -881494.01    107352.61    -774141.4    3055130.8 
   47900       11.975    2001.5756    2041148.7   -874918.97    110126.11   -764792.86    3049892.3 
   48000           12    2045.3908    2055465.2   -867992.44    112536.81   -755455.63    3044653.7 
   48100       12.025    2085.0657    2070118.8   -860963.28    114719.71   -746243.57    3039415.1 
   48200        12.05    2118.3685    2085011.3   -853682.03    116552.02   -737130.02    3034176.6 
   48300       12.075     2138.457    2099984.1   -845744.68    117657.28   -728087.39      3028938 
   48400         12.1    2160.0599    2115206.2   -837976.83    118845.87   -719130.96    3023699.5 
   48500       12.125    2172.9124    2130522.7    -829736.5    119553.01   -710183.49    3018460.9 
   48600        12.15    2178.2918    2145515.3   -821411.28    119848.98   -701562.29    3013222.3 
   48700       12.175    2183.1706    2160976.7   -813275.78    120117.41   -693158.36    3007983.8 
   48800         12.2    2186.0275    2176917.5   -805188.89     120274.6   -684914.29    3002745.2 
   48900       12.225    2184.5452    2192597.4   -796957.85    120193.04   -676764.81    2997506.6 
   49000        12.25    2186.8956    2208801.4   -789083.91    120322.36   -668761.55    2992268.1 
   49100       12.275    2188.4837    2225345.4   -781163.86    120409.74   -660754.12    2987029.5 
   49200         12.3    2192.9712    2242052.7   -773365.73    120656.64    -652709.1    2981790.9 
   49300       12.325    2197.6128    2258703.9   -765552.63    120912.02   -644640.61    2976552.4 
   49400        12.35    2205.3759    2275333.3    -757957.5    121339.14   -636618.36    2971313.8 
   49500       12.375    2213.9822    2291477.8    -750409.7    121812.66   -628597.04    2966075.2 
   49600         12.4    2227.9031    2307540.3   -743191.41    122578.58   -620612.83    2960836.7 
   49700       12.425    2246.0507    2322708.7   -736239.76    123577.06    -612662.7    2955598.1 
   49800        12.45    2266.5757    2337355.5   -729592.05    124706.34   -604885.71    2950359.5 
   49900       12.475    2288.6035    2351988.4   -723094.76     125918.3   -597176.46      2945121 
   50000         12.5    2318.6638    2366432.5    -717008.5    127572.21   -589436.29    2939882.4 
Loop time of 429.435 on 24 procs for 50000 steps with 425652 atoms

Performance: 2.515 ns/day, 9.543 hours/ns, 116.432 timesteps/s
99.8% CPU use with 24 MPI tasks x 1 OpenMP threads

MPI task timing breakdown:
Section |  min time  |  avg time  |  max time  |%varavg| %total
---------------------------------------------------------------
Pair    | 211.28     | 218.79     | 229.54     |  35.7 | 50.95
Neigh   | 0.09121    | 0.094222   | 0.098316   |   0.7 |  0.02
Comm    | 40.177     | 41.772     | 43.154     |  12.7 |  9.73
Output  | 13.8       | 13.801     | 13.816     |   0.1 |  3.21
Modify  | 126.22     | 136.06     | 142.85     |  42.1 | 31.68
Other   |            | 18.92      |            |       |  4.41

Nlocal:        17735.5 ave       18607 max       16185 min
Histogram: 4 0 0 4 0 0 2 3 3 8
Nghost:        24271.5 ave       25012 max       22799 min
Histogram: 4 0 0 0 4 0 1 3 3 9
Neighs:         0.00000 ave           0 max           0 min
Histogram: 24 0 0 0 0 0 0 0 0 0

Total # of neighbors = 0
Ave neighs/atom = 0.0000000
Neighbor list builds = 480
Dangerous builds = 0


---------------------------------------------------------------------
      Device Time Info (average): 
---------------------------------------------------------------------
Data Transfer:   34.2059 s.
Neighbor copy:   0.0206 s.
Neighbor build:  1.6045 s.
Force calc:      120.4822 s.
Device Overhead: 67.5366 s.
Average split:   1.0000.
Lanes / atom:    4.
Vector width:    32.
Max Mem / Proc:  82.31 MB.
CPU Neighbor:    0.2756 s.
CPU Cast/Pack:   18.4099 s.
CPU Driver_Time: 1.0291 s.
CPU Idle_Time:   56.1831 s.
---------------------------------------------------------------------

Total wall time: 0:07:18
