LAMMPS (24 Mar 2022)
OMP_NUM_THREADS environment is not set. Defaulting to 1 thread. (src/comm.cpp:98)
  using 1 OpenMP thread(s) per MPI task
package gpu 0
################################################################################
# LAMMPS input file                                                            #
#                                                                              #
# Attempted recreation of approximate setup of Zhao, et al.                    #
# Using nial09 eam, impactor at uP = 3 km/s                                    #
#                                                                              #
# richard terrett, 2018                                                        #
#                                                                              #
################################################################################

# variables

variable al_fcc_a equal 4.064
variable ni_fcc_a equal 3.528
variable v_up     equal 30
variable    box_x equal 514.00
variable   box_yz equal 100
variable  half_yz equal ${box_yz}/2
variable  half_yz equal 100/2
variable void_radius equal 20

# simulation construction

units      metal
dimension  3
boundary   p p p
atom_style atomic
timestep   0.001

# lattice construction

region       simulation_box block 0.00   ${box_x} 0.00 ${box_yz} 0.00 ${box_yz}
region       simulation_box block 0.00   514 0.00 ${box_yz} 0.00 ${box_yz}
region       simulation_box block 0.00   514 0.00 100 0.00 ${box_yz}
region       simulation_box block 0.00   514 0.00 100 0.00 100
create_box 2 simulation_box
Created orthogonal box = (0 0 0) to (514 100 100)
  6 by 1 by 1 MPI processor grid
region       al_a    block          0.00  14.00 0.00 ${box_yz} 0.00 ${box_yz}
region       al_a    block          0.00  14.00 0.00 100 0.00 ${box_yz}
region       al_a    block          0.00  14.00 0.00 100 0.00 100
region       ni_a    block         14.00  70.00 0.00 ${box_yz} 0.00 ${box_yz}
region       ni_a    block         14.00  70.00 0.00 100 0.00 ${box_yz}
region       ni_a    block         14.00  70.00 0.00 100 0.00 100
region       al_b    block         70.00  98.00 0.00 ${box_yz} 0.00 ${box_yz}
region       al_b    block         70.00  98.00 0.00 100 0.00 ${box_yz}
region       al_b    block         70.00  98.00 0.00 100 0.00 100
region       ni_b    block         98.00 154.00 0.00 ${box_yz} 0.00 ${box_yz}
region       ni_b    block         98.00 154.00 0.00 100 0.00 ${box_yz}
region       ni_b    block         98.00 154.00 0.00 100 0.00 100
region       al_c    block        154.00 182.00 0.00 ${box_yz} 0.00 ${box_yz}
region       al_c    block        154.00 182.00 0.00 100 0.00 ${box_yz}
region       al_c    block        154.00 182.00 0.00 100 0.00 100
region       ni_c    block        182.00 238.00 0.00 ${box_yz} 0.00 ${box_yz}
region       ni_c    block        182.00 238.00 0.00 100 0.00 ${box_yz}
region       ni_c    block        182.00 238.00 0.00 100 0.00 100
region       al_d    block        238.00 252.00 0.00 ${box_yz} 0.00 ${box_yz}
region       al_d    block        238.00 252.00 0.00 100 0.00 ${box_yz}
region       al_d    block        238.00 252.00 0.00 100 0.00 100
region       void    block        252.00 262.00 0.00 ${box_yz} 0.00 ${box_yz}
region       void    block        252.00 262.00 0.00 100 0.00 ${box_yz}
region       void    block        252.00 262.00 0.00 100 0.00 100
region       al_w    block        262.00 276.00 0.00 ${box_yz} 0.00 ${box_yz}
region       al_w    block        262.00 276.00 0.00 100 0.00 ${box_yz}
region       al_w    block        262.00 276.00 0.00 100 0.00 100
region       ni_w    block        276.00 332.00 0.00 ${box_yz} 0.00 ${box_yz}
region       ni_w    block        276.00 332.00 0.00 100 0.00 ${box_yz}
region       ni_w    block        276.00 332.00 0.00 100 0.00 100
region       al_x    block        332.00 360.00 0.00 ${box_yz} 0.00 ${box_yz}
region       al_x    block        332.00 360.00 0.00 100 0.00 ${box_yz}
region       al_x    block        332.00 360.00 0.00 100 0.00 100
region       ni_x    block        360.00 416.00 0.00 ${box_yz} 0.00 ${box_yz}
region       ni_x    block        360.00 416.00 0.00 100 0.00 ${box_yz}
region       ni_x    block        360.00 416.00 0.00 100 0.00 100
region       al_y    block        416.00 444.00 0.00 ${box_yz} 0.00 ${box_yz}
region       al_y    block        416.00 444.00 0.00 100 0.00 ${box_yz}
region       al_y    block        416.00 444.00 0.00 100 0.00 100
region       ni_y    block        444.00 500.00 0.00 ${box_yz} 0.00 ${box_yz}
region       ni_y    block        444.00 500.00 0.00 100 0.00 ${box_yz}
region       ni_y    block        444.00 500.00 0.00 100 0.00 100
region       al_z    block        500.00 514.00 0.00 ${box_yz} 0.00 ${box_yz}
region       al_z    block        500.00 514.00 0.00 100 0.00 ${box_yz}
region       al_z    block        500.00 514.00 0.00 100 0.00 100
region    chomp_b   sphere          84.0       ${half_yz}      ${half_yz}  ${void_radius}
region    chomp_b   sphere          84.0       50      ${half_yz}  ${void_radius}
region    chomp_b   sphere          84.0       50      50  ${void_radius}
region    chomp_b   sphere          84.0       50      50  20
region    chomp_c   sphere         168.0       ${half_yz}      ${half_yz}  ${void_radius}
region    chomp_c   sphere         168.0       50      ${half_yz}  ${void_radius}
region    chomp_c   sphere         168.0       50      50  ${void_radius}
region    chomp_c   sphere         168.0       50      50  20
region    chomp_x   sphere         346.0       ${half_yz}      ${half_yz}  ${void_radius}
region    chomp_x   sphere         346.0       50      ${half_yz}  ${void_radius}
region    chomp_x   sphere         346.0       50      50  ${void_radius}
region    chomp_x   sphere         346.0       50      50  20
region    chomp_y   sphere         430.0       ${half_yz}      ${half_yz}  ${void_radius}
region    chomp_y   sphere         430.0       50      ${half_yz}  ${void_radius}
region    chomp_y   sphere         430.0       50      50  ${void_radius}
region    chomp_y   sphere         430.0       50      50  20
region       left    block           0.0 257.00 0.0 200 0.0 200
region      right    block         257.0 514.00 0.0 200 0.0 200

lattice      fcc ${ni_fcc_a} orient x 1 1 1 orient y 1 -1 0 orient z 1 1 -2
lattice      fcc 3.528 orient x 1 1 1 orient y 1 -1 0 orient z 1 1 -2
Lattice spacing in x,y,z = 6.1106752 4.9893454 5.7611999
create_atoms 1 region ni_a
Created 52400 atoms
  using lattice units in orthogonal box = (0 0 0) to (514 100 100)
  create_atoms CPU = 0.021 seconds
create_atoms 1 region ni_b
Created 50582 atoms
  using lattice units in orthogonal box = (0 0 0) to (514 100 100)
  create_atoms CPU = 0.014 seconds
create_atoms 1 region ni_c
Created 50623 atoms
  using lattice units in orthogonal box = (0 0 0) to (514 100 100)
  create_atoms CPU = 0.019 seconds
create_atoms 1 region ni_w
Created 50572 atoms
  using lattice units in orthogonal box = (0 0 0) to (514 100 100)
  create_atoms CPU = 0.013 seconds
create_atoms 1 region ni_x
Created 52486 atoms
  using lattice units in orthogonal box = (0 0 0) to (514 100 100)
  create_atoms CPU = 0.012 seconds
create_atoms 1 region ni_y
Created 52375 atoms
  using lattice units in orthogonal box = (0 0 0) to (514 100 100)
  create_atoms CPU = 0.012 seconds
lattice      fcc ${al_fcc_a} orient x 1 1 1 orient y 1 -1 0 orient z 1 1 -2
lattice      fcc 4.064 orient x 1 1 1 orient y 1 -1 0 orient z 1 1 -2
Lattice spacing in x,y,z = 7.0390545 5.7473639 6.6364842
create_atoms 2 region al_a
Created 8102 atoms
  using lattice units in orthogonal box = (0 0 0) to (514 100 100)
  create_atoms CPU = 0.007 seconds
create_atoms 2 region al_b
Created 16926 atoms
  using lattice units in orthogonal box = (0 0 0) to (514 100 100)
  create_atoms CPU = 0.011 seconds
create_atoms 2 region al_c
Created 16910 atoms
  using lattice units in orthogonal box = (0 0 0) to (514 100 100)
  create_atoms CPU = 0.008 seconds
create_atoms 2 region al_d
Created 8463 atoms
  using lattice units in orthogonal box = (0 0 0) to (514 100 100)
  create_atoms CPU = 0.010 seconds
create_atoms 2 region al_w
Created 8416 atoms
  using lattice units in orthogonal box = (0 0 0) to (514 100 100)
  create_atoms CPU = 0.006 seconds
create_atoms 2 region al_x
Created 16912 atoms
  using lattice units in orthogonal box = (0 0 0) to (514 100 100)
  create_atoms CPU = 0.007 seconds
create_atoms 2 region al_y
Created 16901 atoms
  using lattice units in orthogonal box = (0 0 0) to (514 100 100)
  create_atoms CPU = 0.007 seconds
create_atoms 2 region al_z
Created 8461 atoms
  using lattice units in orthogonal box = (0 0 0) to (514 100 100)
  create_atoms CPU = 0.006 seconds

# pair potential

pair_style eam/alloy
pair_coeff * * Mishin-Ni-Al-2009.eam.alloy Ni Al

# reporting

thermo 100
dump 1 all atom 1000  thermalise.lammpstrj

# dynamics initialisation

#delete_atoms region chomp_b compress no
#delete_atoms region chomp_c compress no
#delete_atoms region chomp_x compress no
#delete_atoms region chomp_y compress no
delete_atoms overlap 2 all all
System init for delete_atoms ...
Neighbor list info ...
  update every 1 steps, delay 10 steps, check yes
  max neighbors/atom: 2000, page size: 100000
  master list distance cutoff = 8.28721
  ghost atom cutoff = 8.28721
  binsize = 4.143605, bins = 125 25 25
  1 neighbor lists, perpetual/occasional/extra = 0 1 0
  (1) command delete_atoms, occasional
      attributes: full, newton off
      pair build: full/bin/atomonly
      stencil: full/bin/3d
      bin: standard
Deleted 12135 atoms, new total = 397994
velocity all create 300 1 mom yes rot no



# Thermalisation
fix   1 all npt temp 300 300 $(100*dt) iso 0.0 0.0 $(1000*dt) drag 0.0
fix   1 all npt temp 300 300 0.10000000000000000555 iso 0.0 0.0 $(1000*dt) drag 0.0
fix   1 all npt temp 300 300 0.10000000000000000555 iso 0.0 0.0 1 drag 0.0
run   30000

CITE-CITE-CITE-CITE-CITE-CITE-CITE-CITE-CITE-CITE-CITE-CITE-CITE

Your simulation uses code contributions which should be cited:

- GPU package (short-range, long-range and three-body potentials):

@Article{Brown11,
 author = {W. M. Brown, P. Wang, S. J. Plimpton, A. N. Tharrington},
 title = {Implementing Molecular Dynamics on Hybrid High Performance Computers - Short Range Forces},
 journal = {Comp.~Phys.~Comm.},
 year =    2011,
 volume =  182,
 pages =   {898--911}
}

@Article{Brown12,
 author = {W. M. Brown, A. Kohlmeyer, S. J. Plimpton, A. N. Tharrington},
 title = {Implementing Molecular Dynamics on Hybrid High Performance Computers - Particle-Particle Particle-Mesh},
 journal = {Comp.~Phys.~Comm.},
 year =    2012,
 volume =  183,
 pages =   {449--459}
}

@Article{Brown13,
 author = {W. M. Brown, Y. Masako},
 title = {Implementing Molecular Dynamics on Hybrid High Performance Computers – Three-Body Potentials},
 journal = {Comp.~Phys.~Comm.},
 year =    2013,
 volume =  184,
 pages =   {2785--2793}
}

@Article{Trung15,
 author = {T. D. Nguyen, S. J. Plimpton},
 title = {Accelerating dissipative particle dynamics simulations for soft matter systems},
 journal = {Comput.~Mater.~Sci.},
 year =    2015,
 volume =  100,
 pages =   {173--180}
}

@Article{Trung17,
 author = {T. D. Nguyen},
 title = {GPU-accelerated Tersoff potentials for massively parallel Molecular Dynamics simulations},
 journal = {Comp.~Phys.~Comm.},
 year =    2017,
 volume =  212,
 pages =   {113--122}
}

@Article{Nikolskiy19,
 author = {V. Nikolskiy, V. Stegailov},
 title = {GPU acceleration of four-site water models in LAMMPS},
 journal = {Proceeding of the International Conference on Parallel Computing (ParCo 2019), Prague, Czech Republic},
 year =    2019
}

CITE-CITE-CITE-CITE-CITE-CITE-CITE-CITE-CITE-CITE-CITE-CITE-CITE

Neighbor list info ...
  update every 1 steps, delay 10 steps, check yes
  max neighbors/atom: 2000, page size: 100000
  master list distance cutoff = 8.28721
  ghost atom cutoff = 8.28721
  binsize = 4.143605, bins = 125 25 25
  0 neighbor lists, perpetual/occasional/extra = 0 0 0
Per MPI rank memory allocation (min/avg/max) = 26.66 | 26.82 | 26.96 Mbytes
   Step          Temp          E_pair         E_mol          TotEng         Press          Volume    
         0   300           -1651034.5      0             -1635601.1     -15252.243      5140000      
       100   313.37132     -1651749.5      0             -1635628.2     -4534.6422      5068650      
       200   296.08956     -1651144.4      0             -1635912.2      397.30945      5046318.1    
       300   288.7055      -1651190.6      0             -1636338.2      837.71324      5049182.8    
       400   300.44779     -1652015        0             -1636558.5     -653.62434      5051170.6    
       500   301.07381     -1652334.8      0             -1636846.1     -83.540781      5043069.3    
       600   301.74492     -1652595.4      0             -1637072.2     -377.29393      5035484.2    
       700   303.45327     -1652837.5      0             -1637226.5     -457.60625      5027605      
       800   296.19135     -1652551.4      0             -1637313.9     -114.18507      5022104      
       900   294.22049     -1652221.7      0             -1637085.6      27.790608      5018796.2    
      1000   301.49731     -1652283.6      0             -1636773.2      443.31211      5019764.6    
      1100   306.69703     -1652430.7      0             -1636652.8     -427.25928      5029555.6    
      1200   300.42381     -1652363.9      0             -1636908.7      499.82023      5026922.9    
      1300   302.6555      -1652753.5      0             -1637183.5     -596.61968      5032500.4    
      1400   300.33403     -1652863.3      0             -1637412.7      526.82962      5026813.6    
      1500   299.10534     -1652944.9      0             -1637557.6     -50.204388      5031693.3    
      1600   295.75804     -1652790.1      0             -1637574.9      210.10518      5035913.6    
      1700   296.44771     -1652557        0             -1637306.4      172.53284      5039486.1    
      1800   301.32025     -1652528.2      0             -1637026.8     -260.18716      5044591.9    
      1900   299.82706     -1652375.8      0             -1636951.3      35.209162      5042759.2    
      2000   301.90464     -1652501.7      0             -1636970.4     -157.00101      5038825.4    
      2100   301.4062      -1652627.4      0             -1637121.6      70.310004      5036194.5    
      2200   299.63867     -1652736        0             -1637321.2     -148.03914      5034250.1    
      2300   298.29143     -1652837.1      0             -1637491.6      89.704287      5030958.1    
      2400   299.02243     -1652910.9      0             -1637527.8     -175.31887      5030936.8    
      2500   297.89451     -1652710.1      0             -1637385       -154.85507      5029226      
      2600   298.74322     -1652525        0             -1637156.2      227.18688      5027501      
      2700   304.26998     -1652626.7      0             -1636973.6     -235.06577      5028814.8    
      2800   303.67737     -1652739.2      0             -1637116.6      212.20489      5028088.7    
      2900   298.52983     -1652718.9      0             -1637361.2      149.35688      5032268.4    
      3000   299.7164      -1652847.6      0             -1637428.8      4.3486921      5036786.2    
      3100   300.91652     -1652939.6      0             -1637459        112.22599      5039980.5    
      3200   299.09617     -1652963.1      0             -1637576.2      8.1360014      5043777.1    
      3300   295.25005     -1652784.6      0             -1637595.5     -7.6039134      5046536.9    
      3400   296.98018     -1652622.5      0             -1637344.5      178.89319      5047832.2    
      3500   304.22578     -1652781.3      0             -1637130.6     -168.22124      5051534.3    
      3600   303.07824     -1652854.6      0             -1637262.9      82.775599      5051426.6    
      3700   300.56152     -1652960.7      0             -1637498.4     -117.59067      5051429.6    
      3800   300.01223     -1653111        0             -1637676.9     -146.32017      5048926.1    
      3900   299.45216     -1653216.3      0             -1637811.1      3.7277391      5045281.3    
      4000   299.80345     -1653303.6      0             -1637880.3      142.32282      5043107.5    
      4100   296.27841     -1653102        0             -1637860.1     -90.469999      5043756.1    
      4200   297.81631     -1652979.7      0             -1637658.7      88.410936      5043412.9    
      4300   299.58247     -1652884.5      0             -1637472.6      137.25093      5044491      
      4400   302.40618     -1652912.7      0             -1637355.5     -125.249        5047209.5    
      4500   303.83526     -1653116.8      0             -1637486.1      259.4849       5049190.8    
      4600   299.69222     -1653143        0             -1637725.5      81.677734      5055351.5    
      4700   299.52953     -1653250.2      0             -1637841        57.945386      5060227.8    
      4800   297.96963     -1653185.6      0             -1637856.7      194.32643      5065109.1    
      4900   298.23214     -1653044.1      0             -1637701.7     -83.018875      5070533.5    
      5000   298.32975     -1652842.1      0             -1637494.6      53.888809      5072248.8    
      5100   299.42227     -1652702.3      0             -1637298.6     -51.409194      5073100.1    
      5200   303.99762     -1652845.1      0             -1637206        73.710647      5072188.5    
      5300   302.80762     -1652987.4      0             -1637409.5     -42.383382      5072572.3    
      5400   301.11698     -1653133.6      0             -1637642.8      49.943099      5072681.8    
      5500   300.22493     -1653233.2      0             -1637788.3     -254.45352      5072105.9    
      5600   300.02636     -1653315.9      0             -1637881.1      11.9089        5067630.7    
      5700   298.34255     -1653295.9      0             -1637947.8     -10.225208      5065140.4    
      5800   297.5608      -1653160.3      0             -1637852.4      58.99748       5063534.2    
      5900   300.37704     -1653124        0             -1637671.2      162.06746      5065531.5    
      6000   302.0338      -1653162.5      0             -1637624.4      85.414954      5069777.3    
      6100   302.00243     -1653280.1      0             -1637743.7      25.97047       5074566.3    
      6200   301.28966     -1653432.8      0             -1637933        138.85022      5078043.8    
      6300   299.36171     -1653480.1      0             -1638079.5     -138.09808      5081856.1    
      6400   299.73529     -1653543.3      0             -1638123.6      137.7814       5081657.9    
      6500   297.10949     -1653325.8      0             -1638041.1      33.88414       5084317.6    
      6600   299.51163     -1653245.6      0             -1637837.4      104.05455      5087201.6    
      6700   300.64112     -1653154.2      0             -1637687.9      87.520904      5090843.5    
      6800   301.32419     -1653119.3      0             -1637617.8     -138.3068       5093897.8    
      6900   302.20956     -1653236.9      0             -1637689.8      127.71303      5092943.3    
      7000   300.21789     -1653318.1      0             -1637873.5     -190.35407      5093028.8    
      7100   298.58939     -1653347.7      0             -1637986.9      50.65539       5089878.3    
      7200   298.90194     -1653337.9      0             -1637961       -38.564601      5088800.6    
      7300   299.91225     -1653295.5      0             -1637866.6      41.266083      5088138.9    
      7400   299.5741      -1653164.3      0             -1637752.8      10.255597      5088657.4    
      7500   300.43773     -1653089        0             -1637633.1      71.352232      5090128.1    
      7600   301.79781     -1653101.2      0             -1637575.4     -19.464093      5092319.4    
      7700   302.16518     -1653204.6      0             -1637659.8      106.33638      5094128.2    
      7800   300.21359     -1653289.6      0             -1637845.2      127.6574       5097829.1    
      7900   297.94519     -1653274.8      0             -1637947.1      16.22338       5102775.5    
      8000   298.79976     -1653216.4      0             -1637844.7      66.323134      5106387.5    
      8100   300.76698     -1653182.2      0             -1637709.4     -22.669485      5109075.3    
      8200   299.13668     -1653036.4      0             -1637647.4      33.941886      5110333.9    
      8300   301.36879     -1653092.5      0             -1637588.7     -72.234329      5111118.3    
      8400   300.81083     -1653138.7      0             -1637663.6      66.537093      5109807.1    
      8500   301.07684     -1653300.1      0             -1637811.3     -83.53798       5110071.4    
      8600   300.07894     -1653385.8      0             -1637948.4      45.338145      5109478.3    
      8700   298.45107     -1653389.8      0             -1638036.1     -16.925349      5109623.1    
      8800   298.20929     -1653304.7      0             -1637963.4      1.1247922      5110046.1    
      8900   299.43097     -1653200        0             -1637795.9      98.483936      5110396.1    
      9000   300.54912     -1653130.1      0             -1637668.5     -10.893431      5112234      
      9100   301.05555     -1653082        0             -1637594.4     -19.850541      5114284.4    
      9200   301.18072     -1653109.8      0             -1637615.6      155.2484       5115993.5    
      9300   299.6429      -1653147.5      0             -1637732.5     -33.654667      5120103.2    
      9400   299.43501     -1653199.1      0             -1637794.8      64.650446      5122945.1    
      9500   299.34084     -1653164.9      0             -1637765.4      47.075156      5126112.7    
      9600   298.46702     -1653017.3      0             -1637662.7      5.9562765      5129134.1    
      9700   298.47882     -1652862.5      0             -1637507.4     -14.421782      5130761.7    
      9800   300.28377     -1652818.2      0             -1637370.3     -45.233202      5130713.3    
      9900   301.00186     -1652787.3      0             -1637302.4     -60.580937      5129276.3    
     10000   302.35243     -1652897.7      0             -1637343.3      8.7826103      5126733.1    
     10100   301.2392      -1653004.7      0             -1637507.6      31.512689      5125522.9    
     10200   299.57615     -1653045.6      0             -1637634.1     -32.395341      5126181.4    
     10300   299.26308     -1653079        0             -1637683.5      54.640129      5126894.9    
     10400   298.93015     -1653043.2      0             -1637664.9     -84.368543      5127817.6    
     10500   299.66853     -1653011.7      0             -1637595.4      46.648302      5127046.1    
     10600   300.33637     -1652975.5      0             -1637524.8      7.0881854      5127391.9    
     10700   301.13432     -1652983.9      0             -1637492.2      147.09451      5128514      
     10800   300.71713     -1653029.9      0             -1637559.6      7.8198763      5132258.6    
     10900   300.41767     -1653130.5      0             -1637675.7      135.67718      5136517.7    
     11000   298.08        -1653101.9      0             -1637767.3      7.1769743      5141801.9    
     11100   298.0567      -1653031.6      0             -1637698.2     -36.251924      5144677.4    
     11200   299.75701     -1652984.7      0             -1637563.8     -22.788137      5145131.3    
     11300   300.05063     -1652905.9      0             -1637469.9     -83.354777      5144411.7    
     11400   300.48762     -1652878.6      0             -1637420.1      11.581008      5142905.2    
     11500   300.2088      -1652857        0             -1637412.9     -12.007916      5142280.1    
     11600   300.39028     -1652902.3      0             -1637448.9     -36.225577      5141546.2    
     11700   300.14906     -1652967.1      0             -1637526       -76.429004      5140034.9    
     11800   299.43546     -1652976.1      0             -1637571.8     -63.478359      5137489      
     11900   298.7914      -1652904.8      0             -1637533.6     -37.407613      5134452.2    
     12000   298.57172     -1652774.5      0             -1637414.6      39.436175      5132677      
     12100   300.31688     -1652759.6      0             -1637309.9      72.17403       5132533.3    
     12200   301.52146     -1652796        0             -1637284.3      62.797486      5134811.1    
     12300   300.81331     -1652844.3      0             -1637369        62.782555      5138234.1    
     12400   300.2398      -1652911.2      0             -1637465.5      50.275335      5141923.4    
     12500   299.56649     -1652946.9      0             -1637535.8      16.756427      5145410.7    
     12600   298.74611     -1652915.4      0             -1637546.5     -24.066596      5147243.2    
     12700   298.84071     -1652845.9      0             -1637472.2      34.361374      5147760.2    
     12800   299.66512     -1652792.3      0             -1637376.2     -51.836471      5148247.9    
     12900   301.52721     -1652832.5      0             -1637320.6     -7.5442279      5147250.5    
     13000   301.54816     -1652880.8      0             -1637367.7     -58.337149      5146125.4    
     13100   300.23325     -1652911.3      0             -1637466       -83.170904      5143632.7    
     13200   300.73921     -1653018.9      0             -1637547.5     -3.9004545      5139963.7    
     13300   300.46032     -1653099.9      0             -1637642.8     -38.273903      5137061.6    
     13400   298.2848      -1653039.2      0             -1637694.1     -9.6072124      5134842.4    
     13500   298.51925     -1652967.4      0             -1637610.1      14.055077      5133432.9    
     13600   299.566       -1652922.2      0             -1637511.2     -16.929964      5132855.2    
     13700   301.0842      -1652929.6      0             -1637440.4      37.537759      5132875.7    
     13800   300.50093     -1652907.7      0             -1637448.5      32.816392      5133848.6    
     13900   300.25144     -1652963.5      0             -1637517.2      9.3198154      5135087      
     14000   300.13237     -1653013.6      0             -1637573.4      63.059592      5136459.3    
     14100   298.9453      -1652972        0             -1637592.9      0.60416454     5138356.8    
     14200   298.12379     -1652851        0             -1637514.1      3.9954775      5140248.7    
     14300   299.03724     -1652799.1      0             -1637415.3     -21.558163      5141377.7    
     14400   300.65773     -1652804.4      0             -1637337.2     -66.047309      5141213.9    
     14500   300.77031     -1652793.3      0             -1637320.3      4.6504219      5139440.5    
     14600   301.16159     -1652890.7      0             -1637397.6     -98.2173        5137134      
     14700   300.68183     -1652962.3      0             -1637493.8     -15.629816      5133208.8    
     14800   300.58548     -1653049.2      0             -1637585.7     -47.750557      5129467.8    
     14900   300.84524     -1653139        0             -1637662.2     -47.189901      5125988.2    
     15000   299.75388     -1653138.9      0             -1637718.2      21.121455      5123766.5    
     15100   298.93028     -1653099.1      0             -1637720.7      34.122355      5123104.2    
     15200   300.039       -1653101.4      0             -1637666       -13.336722      5123706.9    
     15300   301.28345     -1653132.3      0             -1637632.9     -7.9690413      5124033.3    
     15400   300.93721     -1653168.7      0             -1637687.1      20.461231      5123860.4    
     15500   300.77688     -1653239.6      0             -1637766.2      21.916886      5124400.9    
     15600   300.28095     -1653282.8      0             -1637835        8.0504129      5125679.6    
     15700   298.67339     -1653231.5      0             -1637866.4      69.269854      5127157.8    
     15800   298.30289     -1653151.3      0             -1637805.2     -49.400459      5129156.4    
     15900   299.65312     -1653150.1      0             -1637734.5     -47.714642      5129196.8    
     16000   300.48086     -1653143.1      0             -1637685       -103.21823      5126870.7    
     16100   301.14698     -1653184.5      0             -1637692.1     -86.379203      5122575.1    
     16200   300.33195     -1653209.5      0             -1637759       -66.014162      5117445.5    
     16300   299.48131     -1653204.3      0             -1637797.6     -50.223432      5113214.2    
     16400   299.75474     -1653221.7      0             -1637800.9      51.425402      5110088.3    
     16500   299.54735     -1653189.7      0             -1637779.6     -15.585289      5109014.9    
     16600   300.18773     -1653179.7      0             -1637736.6     -9.576616       5108332.7    
     16700   300.62241     -1653215.1      0             -1637749.7      29.645431      5107353.2    
     16800   300.71692     -1653261.5      0             -1637791.2     -28.002778      5106963.7    
     16900   300.60089     -1653286.6      0             -1637822.3      54.116678      5106584.2    
     17000   300.37071     -1653319.8      0             -1637867.3      9.2684529      5107600.7    
     17100   300.02361     -1653344        0             -1637909.4      13.037262      5108697      
     17200   299.56792     -1653332.8      0             -1637921.7     -11.625237      5109771.5    
     17300   299.65961     -1653291        0             -1637875.1     -2.4523526      5109958.8    
     17400   299.2397      -1653225.8      0             -1637831.5     -57.404717      5109833.7    
     17500   300.98033     -1653291.4      0             -1637807.6     -19.22246       5108027.5    
     17600   300.9845      -1653344.9      0             -1637860.9     -72.12955       5105347.3    
     17700   301.29663     -1653417.9      0             -1637917.8     -62.663779      5101950.7    
     17800   301.58748     -1653504.9      0             -1637989.8     -34.488998      5098165.1    
     17900   299.59935     -1653465.9      0             -1638053.1     -57.810727      5094722.9    
     18000   298.92785     -1653436.7      0             -1638058.5     -13.599239      5091197.8    
     18100   299.49508     -1653402.1      0             -1637994.7     -46.954969      5088307      
     18200   299.45733     -1653347.3      0             -1637941.8      31.892929      5086021.5    
     18300   300.09293     -1653321.1      0             -1637883       -15.996656      5085311.2    
     18400   301.00144     -1653341.3      0             -1637856.4      20.144337      5084683      
     18500   300.03291     -1653329.7      0             -1637894.6      13.210496      5084659.8    
     18600   299.9209      -1653375.6      0             -1637946.3     -5.7190644      5085460      
     18700   299.29759     -1653355        0             -1637957.7      55.006212      5086327.4    
     18800   299.52065     -1653320.4      0             -1637911.7     -40.288047      5087776      
     18900   299.42313     -1653266.6      0             -1637862.9      37.499115      5088240.2    
     19000   299.54255     -1653237.3      0             -1637827.5     -46.595075      5088301.7    
     19100   299.58911     -1653194.4      0             -1637782.2     -45.547987      5087143.2    
     19200   300.91849     -1653228.3      0             -1637747.7     -48.349837      5084772.3    
     19300   301.1537      -1653274.5      0             -1637781.8     -76.642841      5081838.4    
     19400   301.0039      -1653329.3      0             -1637844.3     -34.144668      5078037.7    
     19500   300.38632     -1653365.4      0             -1637912.1     -73.487579      5074230.2    
     19600   299.64221     -1653373.4      0             -1637958.4     -8.3978882      5070729.4    
     19700   299.12761     -1653341.5      0             -1637953       -30.629847      5068161.6    
     19800   300.36742     -1653354.3      0             -1637902       -5.7356102      5066268.5    
     19900   300.36776     -1653358.4      0             -1637906.1      9.4646045      5065177.8    
     20000   300.13998     -1653396.3      0             -1637955.7     -11.589764      5064682.4    
     20100   299.62421     -1653389.8      0             -1637975.7      49.053493      5064281.3    
     20200   299.8937      -1653407.2      0             -1637979.3     -57.366038      5064531.4    
     20300   300.24096     -1653385.9      0             -1637940.2      10.06106       5063963.7    
     20400   299.43822     -1653303.4      0             -1637898.9     -6.3317591      5063811.8    
     20500   298.99255     -1653239.7      0             -1637858.1     -9.6449167      5063789.2    
     20600   299.83866     -1653234.6      0             -1637809.5      27.911146      5063296.7    
     20700   299.79977     -1653200.7      0             -1637777.6     -92.931766      5063090.1    
     20800   299.78456     -1653174.1      0             -1637751.8      14.187596      5060769.7    
     20900   300.15979     -1653192.3      0             -1637750.7     -80.34587       5058222      
     21000   299.78999     -1653221.2      0             -1637798.6      7.7505862      5054603.2    
     21100   298.9974      -1653189.7      0             -1637807.9     -32.360523      5051967.6    
     21200   299.24464     -1653151.9      0             -1637757.4      5.845444       5050128.7    
     21300   299.01008     -1653088.1      0             -1637705.6      40.635672      5049205.4    
     21400   299.25352     -1653042.6      0             -1637647.7      4.4567762      5049304.9    
     21500   300.23975     -1653046.5      0             -1637600.8     -13.530745      5049365      
     21600   300.41754     -1653046.1      0             -1637591.2     -1.7055547      5048622.2    
     21700   300.45788     -1653098.9      0             -1637642       -7.3607136      5047620.9    
     21800   300.32878     -1653140.8      0             -1637690.4      17.856915      5047073      
     21900   299.4361      -1653131        0             -1637726.6      66.984302      5047391.9    
     22000   299.44808     -1653111.3      0             -1637706.4     -23.24799       5048861.7    
     22100   299.53984     -1653052.5      0             -1637642.8      10.808393      5049371.6    
     22200   299.73952     -1653011.5      0             -1637591.6     -64.540702      5049377.3    
     22300   300.13662     -1652995.5      0             -1637555.1     -47.377354      5047806.8    
     22400   300.82497     -1653030.1      0             -1637554.3      0.87744777     5045258.8    
     22500   300.92591     -1653085.8      0             -1637604.8     -36.732527      5042853.2    
     22600   299.92101     -1653070.3      0             -1637640.9     -38.05198       5040849.9    
     22700   300.40296     -1653130.6      0             -1637676.5      28.330353      5038860.9    
     22800   299.47386     -1653101.6      0             -1637695.2     -55.005783      5037813.8    
     22900   299.28444     -1653048        0             -1637651.4      22.893042      5036424.4    
     23000   298.65986     -1652960.8      0             -1637596.4     -2.2752487      5035919      
     23100   299.63301     -1652944.8      0             -1637530.3      58.259376      5035895.3    
     23200   299.52401     -1652884.2      0             -1637475.2      40.237322      5037324.2    
     23300   300.26777     -1652894.6      0             -1637447.5      43.58684       5039635.2    
     23400   300.27616     -1652902.2      0             -1637454.6      34.589965      5042183.5    
     23500   299.81503     -1652915.7      0             -1637491.8     -30.010224      5044396.4    
     23600   298.85386     -1652862.2      0             -1637487.8     -1.1203955      5045333.8    
     23700   299.13993     -1652817.2      0             -1637428       -49.488081      5045353      
     23800   299.65243     -1652792.3      0             -1637376.8     -20.444966      5044346.8    
     23900   299.76795     -1652752.7      0             -1637331.2     -7.4216904      5042926.5    
     24000   300.44147     -1652760.3      0             -1637304.2     -17.821412      5041519.2    
     24100   300.5472      -1652802.3      0             -1637340.7     -26.82942       5039938.7    
     24200   300.69992     -1652861.5      0             -1637392.1     -48.430581      5037814.6    
     24300   300.71141     -1652915.5      0             -1637445.5     -21.611831      5035148.7    
     24400   300.34304     -1652947.4      0             -1637496.4     -25.03973       5032672.6    
     24500   299.2534      -1652930.8      0             -1637535.8     -3.5355408      5030517.2    
     24600   299.29298     -1652925.2      0             -1637528.2      27.885422      5029231      
     24700   300.01331     -1652916        0             -1637481.9      76.300702      5029367.3    
     24800   300.66264     -1652929.8      0             -1637462.3      10.539496      5031087.6    
     24900   300.65457     -1652960.5      0             -1637493.4      69.352244      5033139.1    
     25000   300.47841     -1652996        0             -1637538       -7.4630113      5035860.4    
     25100   299.70599     -1652988.3      0             -1637570        8.5731236      5038114.9    
     25200   299.58237     -1652998.6      0             -1637586.7      1.4388444      5039732.6    
     25300   298.77583     -1652915.8      0             -1637545.4      28.132192      5040874      
     25400   299.32338     -1652889.3      0             -1637490.8     -11.634405      5041614.7    
     25500   299.67372     -1652858        0             -1637441.4      11.494375      5041940.4    
     25600   299.70012     -1652830.9      0             -1637412.9      13.239515      5042017.5    
     25700   300.26312     -1652848.5      0             -1637401.6     -66.707174      5041666.3    
     25800   300.45532     -1652887.7      0             -1637430.9     -41.98213       5040165.9    
     25900   300.28324     -1652927        0             -1637479.1     -26.779828      5037908.7    
     26000   300.19062     -1652937.1      0             -1637493.9     -7.6972029      5035371.5    
     26100   299.66048     -1652913.5      0             -1637497.6     -6.1583266      5033489.2    
     26200   299.91662     -1652892.2      0             -1637463.1      23.382021      5032345      
     26300   300.07281     -1652867.5      0             -1637430.3     -10.006608      5032841.4    
     26400   300.78064     -1652918        0             -1637444.4      101.19712      5033908.4    
     26500   300.4745      -1652941.9      0             -1637484.1     -45.943848      5036708.4    
     26600   300.48268     -1652979        0             -1637520.7      44.693546      5039012.4    
     26700   300.16465     -1653007.9      0             -1637566.1      33.346386      5041197.3    
     26800   300.00328     -1653038.6      0             -1637605       -12.729779      5043659.2    
     26900   299.64875     -1653040.3      0             -1637625        71.887187      5045749.1    
     27000   299.72436     -1653020.6      0             -1637601.4     -22.579597      5048305.7    
     27100   300.36649     -1653009.6      0             -1637557.4      3.2819336      5049983      
     27200   300.86649     -1653043.3      0             -1637565.4     -33.763973      5051003.5    
     27300   300.82876     -1653094.7      0             -1637618.7     -23.639126      5050698.5    
     27400   300.29448     -1653118.4      0             -1637669.8     -4.8972933      5049565.3    
     27500   300.14789     -1653160        0             -1637719        1.0353489      5047868.5    
     27600   299.61162     -1653168        0             -1637754.6      16.048382      5046527.6    
     27700   299.84293     -1653198.2      0             -1637772.9      24.038141      5046062.8    
     27800   299.14355     -1653157        0             -1637767.7     -2.4792711      5046851.4    
     27900   299.3735      -1653110.5      0             -1637709.3      65.72112       5047872.4    
     28000   300.49506     -1653134.3      0             -1637675.4     -23.198134      5049798.1    
     28100   300.5847      -1653124.7      0             -1637661.2      48.716467      5051276.8    
     28200   300.83741     -1653175.6      0             -1637699.1      49.470905      5053230.1    
     28300   300.65818     -1653212.8      0             -1637745.6      12.496179      5055892.6    
     28400   299.56151     -1653193.7      0             -1637782.9      54.281869      5058440.4    
     28500   299.2434      -1653191.9      0             -1637797.5      14.147618      5061362.8    
     28600   299.30238     -1653147.3      0             -1637749.8      33.234329      5063346.1    
     28700   299.45949     -1653112.1      0             -1637706.5     -34.594805      5065213.8    
     28800   300.56232     -1653139.8      0             -1637677.5      29.81288       5065801.3    
     28900   300.62551     -1653158        0             -1637692.4     -46.181525      5066635.8    
     29000   300.86599     -1653226.2      0             -1637748.3      55.633268      5066465.9    
     29100   301.07203     -1653290.8      0             -1637802.3     -45.74288       5066682.6    
     29200   300.71624     -1653336.9      0             -1637866.7     -8.9439542      5066011.2    
     29300   299.62528     -1653338.7      0             -1637924.6      9.3719624      5065093      
     29400   299.77113     -1653384.2      0             -1637962.6      8.2414136      5064375.6    
     29500   299.88981     -1653407.2      0             -1637979.5      52.774468      5064294.1    
     29600   300.05568     -1653403.8      0             -1637967.5      38.170707      5065758.9    
     29700   299.81688     -1653372.2      0             -1637948.2      74.673923      5068421.7    
     29800   300.00458     -1653400        0             -1637966.4      43.220275      5072051.9    
     29900   299.71458     -1653437        0             -1638018.3      17.453425      5075822.7    
     30000   300.02423     -1653459.2      0             -1638024.5      35.812895      5078876.3    
Loop time of 1170.26 on 6 procs for 30000 steps with 397994 atoms

Performance: 2.215 ns/day, 10.836 hours/ns, 25.635 timesteps/s
99.7% CPU use with 6 MPI tasks x 1 OpenMP threads

MPI task timing breakdown:
Section |  min time  |  avg time  |  max time  |%varavg| %total
---------------------------------------------------------------
Pair    | 747.36     | 829.8      | 898.94     | 169.7 | 70.91
Neigh   | 0.23747    | 0.25847    | 0.2729     |   2.8 |  0.02
Comm    | 32.897     | 38.604     | 52.326     | 123.5 |  3.30
Output  | 3.0594     | 3.0679     | 3.0808     |   0.5 |  0.26
Modify  | 196.2      | 259.49     | 327.52     | 262.5 | 22.17
Other   |            | 39.05      |            |       |  3.34

Nlocal:        66332.3 ave       68168 max       63640 min
Histogram: 2 0 0 0 0 0 0 1 1 2
Nghost:        34951.2 ave       38484 max       28467 min
Histogram: 2 0 0 0 0 0 0 0 1 3
Neighs:              0 ave           0 max           0 min
Histogram: 6 0 0 0 0 0 0 0 0 0

Total # of neighbors = -6
Ave neighs/atom = -1.5075604e-05
Neighbor list builds = 331
Dangerous builds = 0
write_restart bilayer-nial09-thermalised.init
System init for write_restart ...
write_data void-nial09-thermalised.data
System init for write_data ...

Total wall time: 0:19:33
