LAMMPS (29 Sep 2021)
  using 1 OpenMP thread(s) per MPI task
Reading restart file ...
  restart file = 29 Sep 2021, LAMMPS = 29 Sep 2021
  restoring atom style atomic from restart
  orthogonal box = (-0.28665146 -0.15209673 0.0000000) to (102.04976 101.91520 548.88902)
  3 by 2 by 16 MPI processor grid
  pair style hybrid/overlay stores no restart info
  456522 atoms
  read_restart CPU = 0.216 seconds
Resetting global fix info from restart file:
  fix style: npt, fix ID: 2

CITE-CITE-CITE-CITE-CITE-CITE-CITE-CITE-CITE-CITE-CITE-CITE-CITE

Your simulation uses code contributions which should be cited:
- @article{cjiang2012
The log file lists these citations in BibTeX format.

CITE-CITE-CITE-CITE-CITE-CITE-CITE-CITE-CITE-CITE-CITE-CITE-CITE

All restart file global fix info was re-assigned
Unused restart file peratom fix info:
  fix style: STORE, fix ID: spatialbins_COMPUTE_STORE
Neighbor list info ...
  update every 1 steps, delay 10 steps, check yes
  max neighbors/atom: 2000, page size: 100000
  master list distance cutoff = 8.28721
  ghost atom cutoff = 8.28721
  binsize = 4.143605, bins = 25 25 133
  3 neighbor lists, perpetual/occasional/extra = 3 0 0
  (1) pair eam/alloy, perpetual, skip from (3)
      attributes: half, newton on
      pair build: skip
      stencil: none
      bin: none
  (2) pair edip/multi, perpetual
      attributes: full, newton on
      pair build: full/bin/atomonly
      stencil: full/bin/3d
      bin: standard
  (3) neighbor class addition, perpetual, half/full from (2)
      attributes: half, newton on
      pair build: halffull/newton
      stencil: none
      bin: none
Setting up Verlet run ...
  Unit style    : metal
  Current step  : 11000407
  Time step     : 0.00025
Per MPI rank memory allocation (min/avg/max) = 6.808 | 11.49 | 13.35 Mbytes
Step Time Temp PotEng E_pair TotEng Press Volume Lx Ly Lz CPULeft 
11000407            0    300.10581   -2108653.4   -2108653.4   -2090944.2    -13.23658    5733255.9    102.33641     102.0673    548.88902            0 
11010000      2.39825     300.2013   -2108664.9   -2108664.9     -2090950      294.581    5731946.6    102.33862    102.04178    548.88902     28091.01 
11020000      4.89825    300.62558   -2108650.1   -2108650.1   -2090910.2   -280.47621      5732487    102.33401      102.056    548.88902    27816.513 
11030000      7.39825    299.91212   -2108630.2   -2108630.2   -2090932.4   -224.96436    5732566.5    102.34089    102.05056    548.88902    27523.539 
11040000      9.89825    300.05032   -2108668.3   -2108668.3   -2090962.3   -74.316404    5731882.1    102.32367    102.05554    548.88902    27233.462 
11050000     12.39825    300.29817   -2108654.6   -2108654.6     -2090934   -296.29501    5732050.2    102.33689    102.04535    548.88902    26952.447 
11060000     14.89825     299.5834   -2108645.1   -2108645.1   -2090966.7    97.672202    5732653.4    102.33954    102.05345    548.88902    26680.513 
11070000     17.39825    300.36883     -2108662     -2108662   -2090937.2    166.08619    5732289.4     102.3397    102.04681    548.88902    26408.771 
11080000     19.89825    299.62952   -2108658.3   -2108658.3   -2090977.1   -12.926186    5733403.9    102.34354    102.06283    548.88902    26133.112 
11090000     22.39825     300.6307   -2108661.6   -2108661.6   -2090921.4   -158.87371    5734149.9    102.35076     102.0689    548.88902    25852.273 
11100000     24.89825    299.86498   -2108651.5   -2108651.5   -2090956.5   -308.42535    5734139.1    102.35193    102.06754    548.88902    25566.064 
11110000     27.39825    299.91745   -2108651.5   -2108651.5   -2090953.3    49.052819    5732845.4    102.33547    102.06092    548.88902    25282.291 
11120000     29.89825    300.11467   -2108655.5   -2108655.5   -2090945.7    112.20026    5732521.5    102.33896    102.05168    548.88902    25001.848 
11130000     32.39825    299.68205   -2108650.6   -2108650.6   -2090966.3    124.93063    5732178.7    102.33631    102.04821    548.88902    24721.962 
11140000     34.89825    300.03713   -2108666.4   -2108666.4   -2090961.2    186.77402    5732016.2    102.33808    102.04356    548.88902    24437.949 
11150000     37.39825    300.60264   -2108653.7   -2108653.7   -2090915.2    35.957937    5732064.6    102.32954    102.05294    548.88902    24151.506 
11160000     39.89825    299.82316   -2108635.6   -2108635.6   -2090943.1     70.76582    5732328.6    102.34023    102.04697    548.88902    23864.272 
11170000     42.39825    299.66636   -2108639.2   -2108639.2   -2090955.9    86.982609    5732143.4    102.33303    102.05086    548.88902    23575.667 
11180000     44.89825    300.13392   -2108670.5   -2108670.5   -2090959.6    75.661388    5732705.1    102.34087    102.05304    548.88902    23291.103 
11190000     47.39825    299.67557   -2108649.5   -2108649.5   -2090965.6    158.33093    5732683.8    102.33802    102.05551    548.88902    23010.795 
11200000     49.89825    299.78415   -2108626.1   -2108626.1   -2090935.9    90.101676      5732993    102.33763    102.06139    548.88902    22732.949 
11210000     52.39825    300.10262   -2108654.7   -2108654.7   -2090945.6    269.89998    5732918.2    102.34434    102.05337    548.88902    22457.151 
11220000     54.89825    300.27773   -2108680.9   -2108680.9   -2090961.6    63.603013    5732426.6    102.33459    102.05434    548.88902    22176.506 
11230000     57.39825    299.82699   -2108635.8   -2108635.8     -2090943   -254.81648    5732714.9    102.34401    102.05009    548.88902    21889.077 
11240000     59.89825    300.40677   -2108637.2   -2108637.2   -2090910.2   -267.83869    5732716.9    102.33116    102.06294    548.88902    21601.993 
11250000     62.39825    300.09217     -2108678     -2108678   -2090969.5    213.47147    5731855.2    102.33651    102.04226    548.88902    21316.311 
11260000     64.89825    300.46742   -2108666.4   -2108666.4   -2090935.9    24.733758    5731920.4    102.33711    102.04282    548.88902    21033.208 
11270000     67.39825    300.44589   -2108666.5   -2108666.5   -2090937.2   -182.86591    5733195.9    102.34321    102.05945    548.88902    20752.131 
11280000     69.89825    300.28289   -2108649.1   -2108649.1   -2090929.5     376.1263    5732452.6    102.33901    102.05041    548.88902    20469.416 
11290000     72.39825    299.95458   -2108658.6   -2108658.6   -2090958.3    98.439694    5733100.2    102.34859    102.05238    548.88902    20185.227 
11300000     74.89825    300.03972   -2108673.6   -2108673.6   -2090968.3   -216.47536    5733660.7    102.34941    102.06154    548.88902    19900.149 
11310000     77.39825    299.70774   -2108671.6   -2108671.6   -2090985.8   -4.7746886    5733392.8    102.34254    102.06362    548.88902    19615.093 
11320000     79.89825    300.39692   -2108682.2   -2108682.2   -2090955.8   -207.37615    5732789.8    102.34189    102.05353    548.88902    19331.375 
11330000     82.39825    299.99642   -2108645.4   -2108645.4   -2090942.6   -224.73061    5732816.4    102.34379    102.05211    548.88902    19049.162 
11340000     84.89825    299.79329   -2108661.3   -2108661.3   -2090970.6    21.024784    5732791.4    102.34149    102.05396    548.88902    18765.871 
11350000     87.39825    299.98639   -2108644.9   -2108644.9   -2090942.8   -112.13169    5732628.4    102.33454    102.05799    548.88902    18481.752 
11360000     89.89825    300.07477   -2108672.4   -2108672.4     -2090965   -267.05245    5732208.9    102.34191    102.04317    548.88902    18196.084 
11370000     92.39825     299.8143   -2108688.2   -2108688.2   -2090996.2    20.485607    5732464.3    102.33711    102.05251    548.88902    17910.473 
11380000     94.89825    299.88571     -2108664     -2108664   -2090967.8   -16.893003    5732359.5    102.34491    102.04286    548.88902    17624.936 
11390000     97.39825    299.90745   -2108642.7   -2108642.7   -2090945.1   -9.2809414      5732485    102.33787    102.05211    548.88902    17341.547 
11400000     99.89825     300.0708   -2108671.2   -2108671.2     -2090964    101.96947    5732703.1    102.33794    102.05593    548.88902    17058.362 
11410000    102.39825    299.79693   -2108660.8   -2108660.8   -2090969.8   -63.961518    5732992.9    102.34031    102.05872    548.88902     16775.29 
11420000    104.89825    299.90512   -2108639.2   -2108639.2   -2090941.8   -266.15257    5733595.6    102.34645    102.06333    548.88902    16491.422 
11430000    107.39825    299.54368   -2108653.3   -2108653.3   -2090977.3   -156.80539    5733560.5    102.34757    102.06159    548.88902    16206.444 
11440000    109.89825    299.85932   -2108664.3   -2108664.3   -2090969.6   -157.88271    5733749.2    102.35331    102.05922    548.88902    15921.139 
11450000    112.39825    299.67853   -2108658.1   -2108658.1   -2090974.1    57.941449    5732413.4    102.34293    102.04579    548.88902    15636.015 
11460000    114.89825    300.10911   -2108688.3   -2108688.3   -2090978.8    19.364334    5732361.8    102.33617    102.05162    548.88902    15351.547 
11470000    117.39825    299.78094   -2108664.8   -2108664.8   -2090974.8    30.989717    5731835.2    102.33397    102.04444    548.88902    15067.172 
11480000    119.89825    300.10545     -2108674     -2108674   -2090964.8   -227.37641    5732837.1    102.33541    102.06084    548.88902    14783.158 
11490000    122.39825    300.17045   -2108689.4   -2108689.4   -2090976.3    54.618263    5733269.7    102.35086    102.05313    548.88902    14498.707 
11500000    124.89825    299.98888   -2108655.9   -2108655.9   -2090953.5   -173.84149    5732825.3    102.33943    102.05662    548.88902    14214.144 
11510000    127.39825    299.69073   -2108676.5   -2108676.5   -2090991.8   -78.847467    5732693.8    102.34014    102.05357    548.88902    13929.499 
11520000    129.89825    300.07087   -2108650.7   -2108650.7   -2090943.5    149.49784    5733121.1     102.3379    102.06341    548.88902    13645.013 
11530000    132.39825    299.35583     -2108647     -2108647     -2090982   -152.98642    5733527.6    102.34627     102.0623    548.88902    13361.112 
11540000    134.89825    299.55205     -2108619     -2108619   -2090942.4   -61.219994    5733025.5      102.342    102.05762    548.88902    13077.692 
11550000    137.39825    299.67822   -2108656.7   -2108656.7   -2090972.7    86.808151    5732942.6     102.3421    102.05604    548.88902    12793.849 
11560000    139.89825    299.92853   -2108677.6   -2108677.6   -2090978.8   -206.34396    5732445.1    102.33648    102.05279    548.88902    12509.642 
11570000    142.39825    300.24785   -2108658.1   -2108658.1   -2090940.5   -146.28067    5732800.2    102.34198    102.05363    548.88902    12225.152 
11580000    144.89825    300.38664     -2108667     -2108667   -2090941.2   -104.77358    5732552.2    102.33968     102.0515    548.88902    11940.452 
11590000    147.39825    299.92739   -2108650.5   -2108650.5   -2090951.8    200.93083    5732680.3    102.33359    102.05986    548.88902    11656.048 
11600000    149.89825    299.60067   -2108651.7   -2108651.7   -2090972.2    103.60436    5732704.6    102.34458    102.04933    548.88902    11371.732 
11610000    152.39825      300.471     -2108661     -2108661   -2090930.3    184.85117    5733270.2    102.34957    102.05443    548.88902     11087.95 
11620000    154.89825    300.01712   -2108671.4   -2108671.4   -2090967.4    90.769531    5732813.8    102.34199    102.05386    548.88902    10804.163 
11630000    157.39825    300.15461   -2108676.3   -2108676.3   -2090964.2     38.15357    5734271.1    102.36024    102.06161    548.88902    10520.203 
11640000    159.89825    299.92681   -2108646.3   -2108646.3   -2090947.6    171.85814    5732872.7    102.34552    102.05139    548.88902    10236.004 
11650000    162.39825    300.26063   -2108677.4   -2108677.4   -2090959.1   -29.222678    5732880.7    102.34236    102.05468    548.88902    9952.1155 
11660000    164.89825    299.56167   -2108654.5   -2108654.5   -2090977.4    142.32363    5733045.2     102.3534     102.0466    548.88902    9668.1542 
11670000    167.39825    299.84043   -2108648.7   -2108648.7   -2090955.2     36.33011    5732449.7    102.33784    102.05152    548.88902    9384.2245 
11680000    169.89825    300.27701   -2108677.2   -2108677.2   -2090957.8   -288.17866    5732686.7    102.34213    102.05146    548.88902    9100.2247 
11690000    172.39825    299.87829     -2108663     -2108663   -2090967.2    -224.1092    5733014.2    102.34727    102.05217    548.88902     8816.224 
11700000    174.89825     300.0223   -2108658.4   -2108658.4   -2090954.1   -14.936266    5732049.7    102.33893    102.04331    548.88902    8532.0921 
11710000    177.39825    299.48801   -2108653.6   -2108653.6   -2090980.8    95.875828    5732434.4    102.33798    102.05111    548.88902    8247.8617 
11720000    179.89825    299.66141   -2108662.9   -2108662.9   -2090979.9    164.53659    5732352.7    102.33633     102.0513    548.88902      7963.71 
11730000    182.39825    300.19769   -2108667.5   -2108667.5   -2090952.8   -107.12477    5733330.7     102.3396    102.06545    548.88902     7679.602 
11740000    184.89825    299.54646   -2108670.7   -2108670.7   -2090994.5   -139.28136    5733908.3    102.35104    102.06432    548.88902    7395.5693 
11750000    187.39825    299.45162   -2108665.7   -2108665.7   -2090995.1    334.22768    5733106.5    102.34468    102.05639    548.88902    7111.6074 
11760000    189.89825    300.30616     -2108663     -2108663     -2090942   -7.7809398    5733674.6    102.34409    102.06709    548.88902     6827.646 
11770000    192.39825    299.78277   -2108649.4   -2108649.4   -2090959.3    43.505818      5733317    102.34815    102.05667    548.88902    6543.6188 
11780000    194.89825    300.36964   -2108668.7   -2108668.7   -2090943.9    96.680431    5733197.3    102.34256    102.06012    548.88902    6259.6281 
11790000    197.39825     300.2959   -2108679.3   -2108679.3   -2090958.8   -103.44767    5733529.9    102.34446    102.06414    548.88902     5975.615 
11800000    199.89825    299.80955   -2108679.2   -2108679.2   -2090987.4    195.42197      5733106    102.33658    102.06446    548.88902    5691.6087 
11810000    202.39825    299.49033   -2108651.5   -2108651.5   -2090978.6    -103.8183    5732839.7    102.33794    102.05836    548.88902    5407.5329 
11820000    204.89825    299.53728     -2108659     -2108659   -2090983.4   -319.98547      5733201    102.34414    102.05861    548.88902    5123.4862 
11830000    207.39825    299.74163   -2108657.2   -2108657.2   -2090969.4    71.381145      5732179    102.33448    102.05005    548.88902    4839.4616 
11840000    209.89825    300.07165   -2108669.1   -2108669.1   -2090961.9    66.436175    5733003.9    102.34566    102.05359    548.88902    4555.3816 
11850000    212.39825    300.37441   -2108678.1   -2108678.1     -2090953     110.9813    5732728.5    102.33962     102.0547    548.88902    4271.2856 
11860000    214.89825    300.08607   -2108674.3   -2108674.3   -2090966.2    68.496235    5732939.9    102.34161    102.05649    548.88902    3987.2937 
11870000    217.39825    299.94868   -2108685.4   -2108685.4   -2090985.4    12.054563    5732893.9    102.33408    102.06317    548.88902    3703.2358 
11880000    219.89825    299.94807   -2108665.7   -2108665.7   -2090965.7   -22.675952    5732794.4    102.34187    102.05363    548.88902    3419.2436 
11890000    222.39825    299.73527   -2108689.3   -2108689.3   -2091001.9    137.20699    5732540.3    102.34347    102.04752    548.88902    3135.3158 
11900000    224.89825    300.46675   -2108668.1   -2108668.1   -2090937.6   -43.254541    5732374.6    102.33483    102.05319    548.88902    2851.3475 
11910000    227.39825    299.50011   -2108659.4   -2108659.4   -2090985.9   -32.534503    5732842.3    102.34758    102.04879    548.88902    2567.3225 
11920000    229.89825    299.50976   -2108651.9   -2108651.9   -2090977.8    198.20105    5732304.4    102.33507    102.05169    548.88902    2283.2843 
11930000    232.39825    299.84787   -2108639.6   -2108639.6   -2090945.6   -158.27017    5733159.7    102.34395    102.05807    548.88902    1999.2702 
11940000    234.89825    299.37611   -2108654.9   -2108654.9   -2090988.7    -16.52566    5732693.6    102.33815    102.05555    548.88902     1715.287 
11950000    237.39825    300.48732   -2108663.6   -2108663.6   -2090931.8   -3.5955636    5733124.7    102.34348    102.05791    548.88902    1431.3381 
11960000    239.89825    299.68022   -2108660.3   -2108660.3   -2090976.2    212.05605    5732180.4    102.33224    102.05231    548.88902    1147.4038 
11970000    242.39825    300.36129     -2108667     -2108667   -2090942.7    208.71118    5733187.4      102.341     102.0615    548.88902    863.45848 
11980000    244.89825    300.41819   -2108674.5   -2108674.5   -2090946.8   -78.249464    5733199.3    102.34684    102.05589    548.88902    579.49368 
11990000    247.39825    300.12663   -2108666.6   -2108666.6   -2090956.1   -185.02782    5732856.6    102.34441    102.05221    548.88902     295.5185 
12000000    249.89825     300.1383   -2108682.5   -2108682.5   -2090971.4    70.991696    5732337.2    102.33911    102.04825    548.88902    11.556987 
12000407          250    299.90712   -2108666.1   -2108666.1   -2090968.6   -75.571442    5732338.6    102.33602    102.05136    548.88902            0 
Loop time of 28395.5 on 96 procs for 1000000 steps with 456522 atoms

Performance: 0.761 ns/day, 31.551 hours/ns, 35.217 timesteps/s
100.0% CPU use with 96 MPI tasks x 1 OpenMP threads

MPI task timing breakdown:
Section |  min time  |  avg time  |  max time  |%varavg| %total
---------------------------------------------------------------
Pair    | 16106      | 21060      | 27275      |2301.0 | 74.17
Neigh   | 37.055     | 61.918     | 79.209     | 172.7 |  0.22
Comm    | 439.28     | 2997.3     | 7242.7     |4002.5 | 10.56
Output  | 1.9805     | 1.9815     | 1.9991     |   0.1 |  0.01
Modify  | 479.06     | 4205.3     | 6700.1     |4364.5 | 14.81
Other   |            | 68.52      |            |       |  0.24

Nlocal:        4755.44 ave        5615 max        3360 min
Histogram: 12 0 4 8 2 11 11 9 25 14
Nghost:        9004.06 ave       10887 max        6125 min
Histogram: 12 0 0 0 19 12 14 15 6 18
Neighs:         0.00000 ave           0 max           0 min
Histogram: 96 0 0 0 0 0 0 0 0 0
FullNghs:      886320.0 ave 1.16704e+06 max      328569 min
Histogram: 12 0 0 4 8 12 5 7 23 25

Total # of neighbors = 85086728
Ave neighs/atom = 186.38035
Neighbor list builds = 2444
Dangerous builds = 0
System init for write_restart ...
System init for write_data ...
Total wall time: 7:53:16
