LAMMPS (29 Sep 2021)
  using 1 OpenMP thread(s) per MPI task
Reading data file ...
  orthogonal box = (-0.50053863 -0.49230779 0.0000000) to (101.57321 101.56498 620.08000)
  3 by 2 by 16 MPI processor grid
  reading atoms ...
  444002 atoms
  reading velocities ...
  444002 velocities
  read_data CPU = 4.480 seconds
222040 atoms in group g_left
221962 atoms in group g_right

CITE-CITE-CITE-CITE-CITE-CITE-CITE-CITE-CITE-CITE-CITE-CITE-CITE

Your simulation uses code contributions which should be cited:
- @article{cjiang2012
The log file lists these citations in BibTeX format.

CITE-CITE-CITE-CITE-CITE-CITE-CITE-CITE-CITE-CITE-CITE-CITE-CITE

Neighbor list info ...
  update every 1 steps, delay 10 steps, check yes
  max neighbors/atom: 2000, page size: 100000
  master list distance cutoff = 8.28721
  ghost atom cutoff = 8.28721
  binsize = 4.143605, bins = 25 25 150
  3 neighbor lists, perpetual/occasional/extra = 3 0 0
  (1) pair eam/alloy, perpetual, skip from (3)
      attributes: half, newton on
      pair build: skip
      stencil: none
      bin: none
  (2) pair edip/multi, perpetual
      attributes: full, newton on
      pair build: full/bin/atomonly
      stencil: full/bin/3d
      bin: standard
  (3) neighbor class addition, perpetual, half/full from (2)
      attributes: half, newton on
      pair build: halffull/newton
      stencil: none
      bin: none
Setting up Verlet run ...
  Unit style    : metal
  Current step  : 0
  Time step     : 0.00025
Per MPI rank memory allocation (min/avg/max) = 5.172 | 12.98 | 18.89 Mbytes
Step Time Temp Press PotEng KinEng TotEng Volume 
       0            0    8253.1776    75381.552   -1955448.6    473663.34   -1481785.3    6459602.4 
     100        0.025    8252.4276    76078.537   -1955434.8     473620.3   -1481814.5      6449185 
     200         0.05    8252.1383    75730.594   -1955420.7     473603.7   -1481817.1    6438767.6 
     300        0.075    8252.6208    75981.607   -1955437.4    473631.39     -1481806    6428350.3 
     400          0.1    8252.9052    75934.489   -1955433.3    473647.71   -1481785.6    6417932.9 
     500        0.125    8253.1406    76383.067   -1955449.1    473661.22   -1481787.9    6407515.5 
     600         0.15      8252.84    76201.828   -1955442.6    473643.97   -1481798.6    6397098.2 
     700        0.175     8253.021    76248.373   -1955453.5    473654.36   -1481799.2    6386680.8 
     800          0.2    8252.1473    76418.074   -1955420.2    473604.21     -1481816    6376263.4 
     900        0.225    8252.2826    76564.615   -1955440.8    473611.98   -1481828.8    6365846.1 
    1000         0.25    8252.1624    76735.537   -1955435.6    473605.08   -1481830.5    6355428.7 
    1100        0.275    8252.2833    77116.645   -1955444.3    473612.02   -1481832.3    6345011.3 
    1200          0.3    8252.1139    77175.566   -1955443.4     473602.3   -1481841.1    6334593.9 
    1300        0.325    8252.0745    77395.482   -1955439.1    473600.04   -1481839.1    6324176.6 
    1400         0.35    8251.6722    77302.527     -1955413    473576.95     -1481836    6313759.2 
    1500        0.375    8252.2178    77443.276   -1955449.1    473608.26   -1481840.8    6303341.8 
    1600          0.4    8252.2331    77692.045   -1955452.6    473609.14   -1481843.5    6292924.5 
    1700        0.425    8251.6923    77678.633   -1955438.5     473578.1   -1481860.4    6282507.1 
    1800         0.45    8251.3923     77868.27   -1955429.2    473560.89   -1481868.3    6272089.7 
    1900        0.475    8251.5267    77715.272   -1955405.1     473568.6   -1481836.5    6261672.4 
    2000          0.5    8252.4298     77642.13   -1955442.4    473620.43     -1481822      6251255 
    2100        0.525    8252.9255    78022.548   -1955459.3    473648.88   -1481810.4    6240837.6 
    2200         0.55    8252.6959    78639.584   -1955450.2     473635.7   -1481814.5    6230420.3 
    2300        0.575    8252.2147    78180.468     -1955417    473608.08   -1481808.9    6220002.9 
    2400          0.6    8252.5051    78441.093   -1955436.5    473624.75   -1481811.8    6209585.5 
    2500        0.625    8252.6318    78447.799   -1955450.8    473632.02   -1481818.7    6199168.1 
    2600         0.65    8252.3387     79003.29   -1955433.3     473615.2   -1481818.1    6188750.8 
    2700        0.675    8252.0777    78948.996   -1955433.8    473600.22   -1481833.6    6178333.4 
    2800          0.7    8251.8907    78815.205   -1955426.1    473589.49   -1481836.6      6167916 
    2900        0.725    8252.4849    78961.804   -1955445.3    473623.59   -1481821.7    6157498.7 
    3000         0.75    8252.1607    79382.946   -1955432.8    473604.99   -1481827.8    6147081.3 
    3100        0.775    8252.0079    79627.086   -1955432.6    473596.21   -1481836.4    6136663.9 
    3200          0.8     8252.277    79459.429   -1955437.1    473611.66   -1481825.5    6126246.6 
    3300        0.825    8252.3267    79552.086   -1955427.4    473614.51   -1481812.9    6115829.2 
    3400         0.85    8252.8135     79764.96   -1955457.2    473642.45   -1481814.8    6105411.8 
    3500        0.875    8252.5435    80383.848   -1955431.1    473626.96   -1481804.1    6094994.5 
    3600          0.9     8252.502    80173.942     -1955423    473624.57   -1481798.4    6084577.1 
    3700        0.925    8252.5284    79783.475   -1955425.7    473626.09   -1481799.6    6074159.7 
    3800         0.95     8253.001    80655.261   -1955457.4    473653.21   -1481804.2    6063742.3 
    3900        0.975     8251.928    80566.446   -1955410.3    473591.63   -1481818.7      6053325 
    4000            1    8252.2289    81011.344   -1955433.8     473608.9   -1481824.9    6042907.6 
    4100        1.025     8252.787    80622.991     -1955445    473640.93   -1481804.1    6032490.2 
    4200         1.05    8252.7075    80653.381   -1955442.9    473636.37   -1481806.5    6022072.9 
    4300        1.075     8252.526    81509.681   -1955446.1    473625.95   -1481820.1    6011655.5 
    4400          1.1    8252.1875    80932.078   -1955425.8    473606.52   -1481819.3    6001238.1 
    4500        1.125    8252.1551    81115.422   -1955428.9    473604.66   -1481824.3    5990820.8 
    4600         1.15    8252.0705    81495.767   -1955419.8    473599.81     -1481820    5980403.4 
    4700        1.175    8252.9653    81486.176   -1955469.2    473651.16     -1481818      5969986 
    4800          1.2    8252.2899    81898.291   -1955435.8     473612.4   -1481823.4    5959568.7 
    4900        1.225    8252.1427    82186.275   -1955434.2    473603.95   -1481830.3    5949151.3 
    5000         1.25    8252.3252    81994.042   -1955434.1    473614.42   -1481819.7    5938733.9 
    5100        1.275    8252.4284    82154.013   -1955440.9    473620.35   -1481820.6    5928316.5 
    5200          1.3    8252.5834    82507.686   -1955462.6    473629.24   -1481833.3    5917899.2 
    5300        1.325    8251.5223    82308.777   -1955405.6    473568.35   -1481837.2    5907481.8 
    5400         1.35     8251.963    82754.417   -1955447.5    473593.64   -1481853.8    5897064.4 
    5500        1.375    8251.4871    83234.596   -1955424.9    473566.33   -1481858.5    5886647.1 
    5600          1.4    8252.2968    83302.617   -1955455.1    473612.79   -1481842.3    5876229.7 
    5700        1.425     8252.623    83215.812   -1955464.4    473631.52   -1481832.9    5865812.3 
    5800         1.45    8252.1242    83478.961   -1955438.5    473602.89   -1481835.6      5855395 
    5900        1.475    8251.6816    83609.287     -1955400    473577.49   -1481822.5    5844977.6 
    6000          1.5    8252.6178    84000.579   -1955440.8    473631.22   -1481809.6    5834560.2 
    6100        1.525    8252.6664     83572.22   -1955443.8    473634.01   -1481809.8    5824142.8 
    6200         1.55    8252.5162    83754.255   -1955443.4    473625.38     -1481818    5813725.5 
    6300        1.575    8252.5172    84250.223   -1955432.4    473625.44   -1481806.9    5803308.1 
    6400          1.6    8252.2762    83973.721   -1955418.9    473611.61   -1481807.3    5792890.7 
    6500        1.625     8252.881    83999.044   -1955456.4    473646.32     -1481810    5782473.4 
    6600         1.65    8252.8882    84367.957   -1955458.9    473646.74   -1481812.2      5772056 
    6700        1.675    8252.0013    84445.012   -1955426.3    473595.83   -1481830.4    5761638.6 
    6800          1.7    8252.5695    84809.525   -1955466.1    473628.44   -1481837.7    5751221.3 
    6900        1.725    8252.3124    85066.979     -1955440    473613.69   -1481826.3    5740803.9 
    7000         1.75    8251.6851    85562.646   -1955412.5    473577.69   -1481834.8    5730386.5 
    7100        1.775    8252.2096    85577.972   -1955435.9    473607.79   -1481828.1    5719969.2 
    7200          1.8    8252.7296    85493.075   -1955442.7    473637.63   -1481805.1    5709551.8 
    7300        1.825    8252.7632    85387.796   -1955441.2    473639.56   -1481801.6    5699134.4 
    7400         1.85    8252.3576    85914.687   -1955429.5    473616.28   -1481813.2      5688717 
    7500        1.875    8251.9694    85681.329   -1955420.5    473594.01   -1481826.5    5678299.7 
    7600          1.9    8252.7518    86023.125   -1955465.8    473638.91   -1481826.9    5667882.3 
    7700        1.925    8252.6658    86144.199   -1955445.2    473633.97   -1481811.3    5657464.9 
    7800         1.95    8252.9107    86370.792   -1955433.3    473648.03   -1481785.3    5647047.6 
    7900        1.975    8252.9703    86626.548   -1955438.7    473651.45   -1481787.3    5636630.2 
    8000            2    8252.8342    86392.711   -1955438.5    473643.63   -1481794.9    5626212.8 
    8100        2.025    8252.3827    86980.091   -1955413.3    473617.73   -1481795.6    5615795.5 
    8200         2.05    8252.5332    86879.613   -1955419.7    473626.36   -1481793.4    5605378.1 
    8300        2.075    8253.1901    86928.463   -1955454.1    473664.06     -1481790    5594960.7 
    8400          2.1    8253.2607    87218.083   -1955445.2    473668.11   -1481777.1    5584543.4 
    8500        2.125    8252.9578    87811.121   -1955427.6    473650.73   -1481776.8      5574126 
    8600         2.15    8252.8107    87452.002   -1955418.4    473642.29   -1481776.1    5563708.6 
    8700        2.175    8253.9066    87867.159   -1955475.3    473705.19   -1481770.1    5553291.2 
    8800          2.2      8253.03    88465.233   -1955429.3    473654.87   -1481774.4    5542873.9 
    8900        2.225     8253.529    87942.215   -1955458.6    473683.51   -1481775.1    5532456.5 
    9000         2.25    8252.7252    88354.083   -1955398.5    473637.38   -1481761.1    5522039.1 
    9100        2.275    8253.9945    88716.587   -1955473.1    473710.23   -1481762.9    5511621.8 
    9200          2.3    8253.2888     88920.14   -1955427.9    473669.73   -1481758.2    5501204.4 
    9300        2.325    8253.3183    89046.295   -1955420.4    473671.42     -1481749      5490787 
    9400         2.35    8253.2541    88729.782   -1955416.8    473667.74   -1481749.1    5480369.7 
    9500        2.375    8253.7794    89055.273   -1955446.9    473697.89     -1481749    5469952.3 
    9600          2.4    8253.5706     89492.48   -1955437.3     473685.9   -1481751.4    5459534.9 
    9700        2.425    8253.5586    89715.487   -1955430.2    473685.21     -1481745    5449117.6 
    9800         2.45     8251.977    90184.423   -1955340.9    473594.44   -1481746.4    5438700.2 
    9900        2.475    8249.3149    91271.179   -1955116.1    473441.66   -1481674.5    5428282.8 
   10000          2.5    8244.9871    92444.283   -1954816.3    473193.28     -1481623    5417865.4 
   10100        2.525    8237.8946    94130.628   -1954183.6    472786.23   -1481397.4    5407448.1 
   10200         2.55    8233.5376     97681.19   -1953268.3    472536.17   -1480732.2    5397030.7 
   10300        2.575    34159.768    396442.26   -1951345.1    1960484.9    9139.7954    5386613.3 
ERROR: Lost atoms: original 444002 current 443976 (../thermo.cpp:439)
Last command: run 50000
