LAMMPS (29 Sep 2021)
  using 1 OpenMP thread(s) per MPI task
Reading restart file ...
  restart file = 29 Sep 2021, LAMMPS = 29 Sep 2021
  restoring atom style atomic from restart
  orthogonal box = (-0.29201325 -0.29098009 0.0000000) to (101.93508 101.93404 531.07200)
  2 by 2 by 6 MPI processor grid
  pair style eam/alloy/gpu stores no restart info
  425652 atoms
  read_restart CPU = 0.091 seconds
Resetting global fix info from restart file:
  fix style: npt/gpu, fix ID: 2

CITE-CITE-CITE-CITE-CITE-CITE-CITE-CITE-CITE-CITE-CITE-CITE-CITE

Your simulation uses code contributions which should be cited:
- GPU package (short-range, long-range and three-body potentials):
The log file lists these citations in BibTeX format.

CITE-CITE-CITE-CITE-CITE-CITE-CITE-CITE-CITE-CITE-CITE-CITE-CITE


--------------------------------------------------------------------------
- Using acceleration for eam/alloy:
-  with 12 proc(s) per device.
-  Horizontal vector operations: ENABLED
-  Shared memory system: No
--------------------------------------------------------------------------
Device 0: Tesla V100-SXM2-32GB, 80 CUs, 28/32 GB, 1.5 GHZ (Mixed Precision)
Device 1: Tesla V100-SXM2-32GB, 80 CUs, 1.5 GHZ (Mixed Precision)
--------------------------------------------------------------------------

Initializing Device and compiling on process 0...Done.
Initializing Devices 0-1 on core 0...Done.
Initializing Devices 0-1 on core 1...Done.
Initializing Devices 0-1 on core 2...Done.
Initializing Devices 0-1 on core 3...Done.
Initializing Devices 0-1 on core 4...Done.
Initializing Devices 0-1 on core 5...Done.
Initializing Devices 0-1 on core 6...Done.
Initializing Devices 0-1 on core 7...Done.
Initializing Devices 0-1 on core 8...Done.
Initializing Devices 0-1 on core 9...Done.
Initializing Devices 0-1 on core 10...Done.
Initializing Devices 0-1 on core 11...Done.

All restart file global fix info was re-assigned
Unused restart file peratom fix info:
  fix style: STORE, fix ID: spatialbins_COMPUTE_STORE
Setting up Verlet run ...
  Unit style    : metal
  Current step  : 11000288
  Time step     : 0.00025
Per MPI rank memory allocation (min/avg/max) = 6.634 | 8.533 | 9.495 Mbytes
Step Time Temp PotEng E_pair TotEng Press Volume Lx Ly Lz CPULeft 
11000288            0    299.55871   -1767442.8   -1767442.8   -1750961.2    71.113523      5549791    102.22709    102.22502      531.072            0 
11010000        2.428    300.66595   -1767463.7   -1767463.7   -1750921.1    34.595563    5550518.2    102.22662    102.23889      531.072    7412.5967 
11020000        4.928    299.75264   -1767440.9   -1767440.9   -1750948.6   -149.28161    5550729.2    102.23608    102.23332      531.072    7357.4045 
11030000        7.428    300.00084   -1767449.4   -1767449.4   -1750943.4   -161.77615    5550965.7    102.23522    102.23853      531.072    7288.1312 
11040000        9.928    300.39572   -1767446.2   -1767446.2   -1750918.5    25.147105    5550862.6    102.23685      102.235      531.072    7215.5927 
11050000       12.428    300.27755   -1767443.7   -1767443.7   -1750922.5    72.618658    5550568.9    102.22943    102.23701      531.072    7142.1087 
11060000       14.928    299.82469   -1767435.4   -1767435.4   -1750939.1   -82.134222    5550838.1    102.23617    102.23523      531.072    7067.5383 
11070000       17.428    300.09261   -1767438.7   -1767438.7   -1750927.7   -98.558825    5551278.5    102.23755    102.24196      531.072    6992.8374 
11080000       19.928    300.02467     -1767444     -1767444   -1750936.8   -129.84394    5550230.7    102.22407    102.23614      531.072    6917.8036 
11090000       22.428    300.04829   -1767441.2   -1767441.2   -1750932.7   -94.337479    5550357.6    102.23133    102.23122      531.072    6843.0349 
11100000       24.928    300.30826   -1767440.7   -1767440.7   -1750917.9   -38.617925    5550295.6    102.22791     102.2335      531.072    6768.0932 
11110000       27.428    299.62626     -1767450     -1767450   -1750964.7   -5.0526357    5549856.3    102.23296    102.22035      531.072    6693.7066 
11120000       29.928    300.59131   -1767473.5   -1767473.5   -1750935.1    14.487478    5549349.2    102.21696    102.22702      531.072    6618.1555 
11130000       32.428    300.31321   -1767463.6   -1767463.6   -1750940.5    51.862187    5550506.4    102.22773    102.23756      531.072    6542.8958 
11140000       34.928    300.30298   -1767461.4   -1767461.4   -1750938.8    51.609756    5550149.3    102.22943    102.22928      531.072    6467.7468 
11150000       37.428    299.06172   -1767406.9   -1767406.9   -1750952.6    -45.94166      5550894    102.22992    102.24251      531.072    6392.3649 
11160000       39.928    299.97577   -1767456.6   -1767456.6     -1750952   -48.352043    5551181.7    102.23604    102.24169      531.072    6317.0996 
11170000       42.428    299.38217   -1767436.2   -1767436.2   -1750964.3    57.297041      5550507    102.22959    102.23571      531.072    6241.9069 
11180000       44.928    299.55735   -1767423.4   -1767423.4   -1750941.9    2.3949376    5550111.7    102.23205    102.22597      531.072    6166.6959 
11190000       47.428      299.782   -1767438.1   -1767438.1   -1750944.1   -18.449581    5550902.2    102.24204    102.23055      531.072    6091.5904 
11200000       49.928    299.43891   -1767436.6   -1767436.6   -1750961.6   -142.30677    5550426.7    102.22933     102.2345      531.072    6016.3466 
11210000       52.428    299.75486   -1767454.4   -1767454.4     -1750962   -141.66407    5549935.9    102.22171    102.23307      531.072    5941.3211 
11220000       54.928    299.38847   -1767436.5   -1767436.5   -1750964.2   -41.372925    5550055.7    102.22954    102.22745      531.072    5866.0514 
11230000       57.428    300.25328   -1767471.1   -1767471.1   -1750951.3    3.2631696    5549732.7    102.22296    102.22808      531.072    5790.7907 
11240000       59.928     299.9977   -1767446.8   -1767446.8     -1750941    14.680654    5550048.5    102.22274    102.23412      531.072    5715.5027 
11250000       62.428    299.97013   -1767451.3   -1767451.3     -1750947    1.2623412    5550770.3    102.23534    102.23481      531.072    5640.2483 
11260000       64.928    299.87074   -1767470.6   -1767470.6   -1750971.8    26.627184    5550579.8    102.23486    102.23179      531.072    5565.1202 
11270000       67.428    299.58937   -1767461.4   -1767461.4     -1750978    24.384859    5550773.6    102.23534    102.23487      531.072    5489.9486 
11280000       69.928    299.76224   -1767440.3   -1767440.3   -1750947.5    75.273769    5551237.3    102.23903    102.23973      531.072    5414.9213 
11290000       72.428      299.425   -1767443.7   -1767443.7   -1750969.4    6.5129152      5550625    102.23419    102.23329      531.072    5339.7835 
11300000       74.928    300.05191   -1767481.2   -1767481.2   -1750972.4    32.288468    5550544.4     102.2345     102.2315      531.072    5264.5784 
11310000       77.428    299.96486   -1767454.8   -1767454.8   -1750950.8   -61.104371      5550991    102.23962     102.2346      531.072    5189.2875 
11320000       79.928    300.53307   -1767478.6   -1767478.6   -1750943.4    55.114769    5550003.6    102.22368    102.23236      531.072    5114.2854 
11330000       82.428    299.78013   -1767432.1   -1767432.1   -1750938.3    18.981509    5549647.5    102.21974    102.22973      531.072    5039.0911 
11340000       84.928    300.31546   -1767426.3   -1767426.3     -1750903   -5.7116012    5550694.3    102.23048    102.23827      531.072    4963.9712 
11350000       87.428    299.58662   -1767437.6   -1767437.6   -1750954.4    15.569788    5549762.6     102.2236    102.22799      531.072    4888.8748 
11360000       89.928      299.781   -1767467.5   -1767467.5   -1750973.7   -142.91912    5550660.6    102.23304    102.23509      531.072    4813.7064 
11370000       92.428    300.35785   -1767444.4   -1767444.4   -1750918.8   -97.372681    5551218.3    102.23809    102.24031      531.072    4738.4578 
11380000       94.928    299.93038   -1767432.4   -1767432.4   -1750930.3     52.92436    5551068.8    102.23334    102.24231      531.072    4663.3323 
11390000       97.428    300.03272   -1767441.6   -1767441.6   -1750933.9    59.060436    5551032.2    102.23281    102.24217      531.072    4588.1709 
11400000       99.928    299.99166   -1767464.2   -1767464.2   -1750958.7     107.1817    5551244.4    102.24207    102.23681      531.072    4512.9519 
11410000      102.428     299.6911   -1767439.4   -1767439.4   -1750950.5   -7.2940779      5551518     102.2441    102.23982      531.072     4437.741 
11420000      104.928    300.02748   -1767461.3   -1767461.3   -1750953.8   -101.82648    5551494.6    102.23901    102.24448      531.072    4362.5947 
11430000      107.428    299.60557   -1767418.8   -1767418.8   -1750934.5   -148.68216    5551189.4    102.23811    102.23976      531.072    4287.3941 
11440000      109.928    299.62641   -1767418.4   -1767418.4     -1750933   -94.511871    5550740.1    102.23869     102.2309      531.072    4212.1691 
11450000      112.428    299.89744   -1767454.1   -1767454.1   -1750953.8   -104.11911    5550609.5    102.23004    102.23715      531.072    4136.9703 
11460000      114.928    300.51697   -1767456.1   -1767456.1   -1750921.7    56.695579    5549943.9    102.22341    102.23152      531.072    4061.7817 
11470000      117.428    300.32819   -1767457.2   -1767457.2   -1750933.2    61.237444    5549868.9    102.23045     102.2231      531.072    3986.6402 
11480000      119.928    300.48221   -1767456.1   -1767456.1   -1750923.7   -39.463969    5550663.9    102.23513    102.23306      531.072     3911.494 
11490000      122.428    300.02171     -1767464     -1767464   -1750956.9   -126.91717    5551343.5     102.2391    102.24161      531.072    3836.3468 
11500000      124.928    299.70021   -1767445.4   -1767445.4     -1750956   -12.738562    5551004.9    102.23425    102.24022      531.072    3761.1771 
11510000      127.428    300.24078   -1767444.3   -1767444.3   -1750925.1    78.619556    5551208.2    102.24012     102.2381      531.072     3686.008 
11520000      129.928    300.26694   -1767460.1   -1767460.1   -1750939.5   -5.5576259    5550969.1    102.24549    102.22832      531.072    3610.8421 
11530000      132.428    300.26764   -1767458.2   -1767458.2   -1750937.5   -123.29265    5551318.8    102.23274    102.24752      531.072    3535.6896 
11540000      134.928    300.54814   -1767452.1   -1767452.1     -1750916   -53.458592      5550799     102.2323    102.23838      531.072    3460.5383 
11550000      137.428    299.99566   -1767461.4   -1767461.4   -1750955.7   -13.793711    5550297.8    102.23116    102.23029      531.072    3385.4039 
11560000      139.928    300.27186   -1767452.5   -1767452.5   -1750931.6    6.7524653    5549584.5    102.22706    102.22125      531.072    3310.2231 
11570000      142.428     299.6398   -1767442.2   -1767442.2   -1750956.1    19.944407    5549927.6    102.23069    102.22394      531.072    3235.0383 
11580000      144.928    299.62057   -1767446.8   -1767446.8   -1750961.7   -83.797163    5550077.1     102.2243    102.23309      531.072    3159.8451 
11590000      147.428    299.90148   -1767425.5   -1767425.5     -1750925   -17.211784    5550226.1    102.22895    102.23118      531.072    3084.6503 
11600000      149.928    300.18606   -1767426.9   -1767426.9   -1750910.8     74.38222    5550442.6    102.23194    102.23217      531.072      3009.49 
11610000      152.428    300.49535   -1767460.8   -1767460.8   -1750927.7    14.153827    5550358.8    102.22695    102.23562      531.072     2934.312 
11620000      154.928    300.00981   -1767443.5   -1767443.5   -1750937.1    57.718747    5550274.8    102.22776    102.23326      531.072    2859.1434 
11630000      157.428    299.85166   -1767463.9   -1767463.9   -1750966.1    168.99085    5550595.1    102.22962    102.23731      531.072    2783.9802 
11640000      159.928    300.16757   -1767467.9   -1767467.9   -1750952.8    56.336836    5550826.2    102.23208     102.2391      531.072    2708.8058 
11650000      162.428    299.47046   -1767442.3   -1767442.3   -1750965.5    6.1589171    5550796.4    102.23704    102.23359      531.072    2633.6189 
11660000      164.928    299.81549   -1767430.4   -1767430.4   -1750934.6   -47.256864      5551290    102.24388    102.23584      531.072    2558.4495 
11670000      167.428    299.93967   -1767438.4   -1767438.4   -1750935.8   -2.3195082    5550324.4    102.23968    102.22226      531.072    2483.2946 
11680000      169.928    300.09858     -1767443     -1767443   -1750931.6   -92.069061    5550059.9    102.22841    102.22866      531.072    2408.1326 
11690000      172.428    299.64153   -1767448.1   -1767448.1   -1750961.9   -92.114764    5550391.6    102.23006    102.23312      531.072    2332.9563 
11700000      174.928    299.47261   -1767440.8   -1767440.8   -1750963.9   -24.918576    5549700.9    102.22517    102.22529      531.072    2257.7789 
11710000      177.428    299.51736   -1767428.4   -1767428.4   -1750949.1    22.956717      5549504    102.21837    102.22846      531.072    2182.5937 
11720000      179.928    299.89424   -1767425.8   -1767425.8   -1750925.8    70.697295    5550177.2    102.22496    102.23427      531.072    2107.4175 
11730000      182.428    300.42408   -1767447.8   -1767447.8   -1750918.6    24.712071    5550054.3    102.22768    102.22929      531.072    2032.2168 
11740000      184.928    300.03077   -1767444.9   -1767444.9   -1750937.3    18.666573      5550412    102.23126    102.23229      531.072    1957.0213 
11750000      187.428    300.10799   -1767440.1   -1767440.1   -1750928.2     -17.8093    5550954.2    102.23047    102.24307      531.072    1881.8455 
11760000      189.928    300.07525   -1767457.5   -1767457.5   -1750947.5   -78.993288      5550982    102.23073    102.24332      531.072    1806.6585 
11770000      192.428    299.99012   -1767480.7   -1767480.7   -1750975.3    13.314711    5550416.3    102.23018    102.23346      531.072    1731.4811 
11780000      194.928    299.99984   -1767436.3   -1767436.3   -1750930.4    154.08244    5550307.9     102.2228    102.23884      531.072    1656.2047 
11790000      197.428     299.9406   -1767451.9   -1767451.9   -1750949.3    39.355971    5550039.2    102.22696    102.22972      531.072    1580.6136 
11800000      199.928    299.85569   -1767431.3   -1767431.3   -1750933.3    100.06966    5549785.1    102.22111     102.2309      531.072    1505.3922 
11810000      202.428    299.89731   -1767458.8   -1767458.8   -1750958.6   -7.8290929    5550230.8    102.22606    102.23415      531.072    1430.1957 
11820000      204.928    300.33238   -1767457.6   -1767457.6   -1750933.4   -24.153731    5549980.4    102.22577    102.22983      531.072    1354.9906 
11830000      207.428     299.9953   -1767416.2   -1767416.2   -1750910.5   -46.954764    5550006.3    102.22159    102.23449      531.072    1279.7989 
11840000      209.928    300.14458   -1767452.6   -1767452.6   -1750938.7   -23.947902    5550110.8    102.22456    102.23345      531.072    1204.6053 
11850000      212.428    299.86986   -1767458.2   -1767458.2   -1750959.5   0.51475706    5550250.4     102.2256    102.23497      531.072    1129.4266 
11860000      214.928    300.03441   -1767440.7   -1767440.7   -1750932.9    47.645266    5550034.7    102.22236    102.23425      531.072    1054.2552 
11870000      217.428    299.76565   -1767442.1   -1767442.1     -1750949    54.862864    5550532.4     102.2343    102.23147      531.072    979.07669 
11880000      219.928    300.05258   -1767451.4   -1767451.4   -1750942.6    106.19759    5550502.5    102.23221    102.23301      531.072    903.90532 
11890000      222.428    300.29091   -1767459.8   -1767459.8   -1750937.8     139.0539    5550517.1    102.22821    102.23728      531.072    828.74464 
11900000      224.928    299.98245   -1767451.5   -1767451.5   -1750946.6   -21.096775    5551025.9    102.23002    102.24484      531.072    753.58958 
11910000      227.428     299.9317   -1767479.6   -1767479.6   -1750977.5    77.701416    5550382.9    102.22591    102.23711      531.072    678.43432 
11920000      229.928    299.73046     -1767424     -1767424   -1750932.9    32.354644    5550237.9    102.22705     102.2333      531.072    603.28243 
11930000      232.428    299.71032   -1767450.6   -1767450.6   -1750960.6    118.22012    5549663.2    102.22362    102.22614      531.072    528.12972 
11940000      234.928    299.89481   -1767443.7   -1767443.7   -1750943.6    26.725543    5549733.1    102.22418    102.22687      531.072    452.98121 
11950000      237.428    300.11119   -1767445.4   -1767445.4   -1750933.4    86.083681    5549612.3    102.22323    102.22559      531.072    377.83943 
11960000      239.928    300.13775   -1767456.5   -1767456.5     -1750943    39.635653      5549770    102.22451    102.22721      531.072    302.70015 
11970000      242.428    299.86223   -1767451.6   -1767451.6   -1750953.2   -45.662201    5550715.2    102.24032    102.22882      531.072    227.56073 
11980000      244.928    299.85197   -1767459.3   -1767459.3   -1750961.5   -39.487596    5550421.7    102.22997    102.23376      531.072    152.42547 
11990000      247.428     299.3647   -1767456.7   -1767456.7   -1750985.8    60.368123    5550264.7    102.22794     102.2329      531.072    77.293083 
12000000      249.928    299.75293   -1767436.2   -1767436.2   -1750943.8    83.254268    5550623.2    102.23078    102.23667      531.072    2.1636892 
12000288          250    300.44624   -1767444.2   -1767444.2   -1750913.7   -63.209821    5551170.1    102.23808    102.23943      531.072            0 
Loop time of 7512.81 on 24 procs for 1000000 steps with 425652 atoms

Performance: 2.875 ns/day, 8.348 hours/ns, 133.106 timesteps/s
99.9% CPU use with 24 MPI tasks x 1 OpenMP threads

MPI task timing breakdown:
Section |  min time  |  avg time  |  max time  |%varavg| %total
---------------------------------------------------------------
Pair    | 2899.4     | 3670.2     | 4474.2     | 697.3 | 48.85
Neigh   | 0.27413    | 0.47456    | 0.54633    |  13.9 |  0.01
Comm    | 748.32     | 836.9      | 912.68     | 205.1 | 11.14
Output  | 3.4483     | 3.4502     | 3.4736     |   0.3 |  0.05
Modify  | 1873.8     | 2661.2     | 3356.8     | 733.1 | 35.42
Other   |            | 340.5      |            |       |  4.53

Nlocal:        17735.5 ave       19009 max       15575 min
Histogram: 8 0 0 0 0 0 0 0 5 11
Nghost:        18855.7 ave       20975 max       15089 min
Histogram: 8 0 0 0 0 0 0 0 0 16
Neighs:         0.00000 ave           0 max           0 min
Histogram: 24 0 0 0 0 0 0 0 0 0

Total # of neighbors = 0
Ave neighs/atom = 0.0000000
Neighbor list builds = 2494
Dangerous builds = 0
System init for write_restart ...


---------------------------------------------------------------------
      Device Time Info (average): 
---------------------------------------------------------------------
Data Transfer:   495.7104 s.
Neighbor copy:   0.1004 s.
Neighbor build:  5.9458 s.
Force calc:      2027.8004 s.
Device Overhead: 1335.3341 s.
Average split:   1.0000.
Lanes / atom:    4.
Vector width:    32.
Max Mem / Proc:  32.61 MB.
CPU Neighbor:    1.1661 s.
CPU Cast/Pack:   456.5335 s.
CPU Driver_Time: 18.4706 s.
CPU Idle_Time:   985.0237 s.
---------------------------------------------------------------------


--------------------------------------------------------------------------
- Using acceleration for eam/alloy:
-  with 12 proc(s) per device.
-  Horizontal vector operations: ENABLED
-  Shared memory system: No
--------------------------------------------------------------------------
Device 0: Tesla V100-SXM2-32GB, 80 CUs, 28/32 GB, 1.5 GHZ (Mixed Precision)
Device 1: Tesla V100-SXM2-32GB, 80 CUs, 1.5 GHZ (Mixed Precision)
--------------------------------------------------------------------------

Initializing Device and compiling on process 0...Done.
Initializing Devices 0-1 on core 0...Done.
Initializing Devices 0-1 on core 1...Done.
Initializing Devices 0-1 on core 2...Done.
Initializing Devices 0-1 on core 3...Done.
Initializing Devices 0-1 on core 4...Done.
Initializing Devices 0-1 on core 5...Done.
Initializing Devices 0-1 on core 6...Done.
Initializing Devices 0-1 on core 7...Done.
Initializing Devices 0-1 on core 8...Done.
Initializing Devices 0-1 on core 9...Done.
Initializing Devices 0-1 on core 10...Done.
Initializing Devices 0-1 on core 11...Done.

System init for write_data ...

--------------------------------------------------------------------------
- Using acceleration for eam/alloy:
-  with 12 proc(s) per device.
-  Horizontal vector operations: ENABLED
-  Shared memory system: No
--------------------------------------------------------------------------
Device 0: Tesla V100-SXM2-32GB, 80 CUs, 28/32 GB, 1.5 GHZ (Mixed Precision)
Device 1: Tesla V100-SXM2-32GB, 80 CUs, 1.5 GHZ (Mixed Precision)
--------------------------------------------------------------------------

Initializing Device and compiling on process 0...Done.
Initializing Devices 0-1 on core 0...Done.
Initializing Devices 0-1 on core 1...Done.
Initializing Devices 0-1 on core 2...Done.
Initializing Devices 0-1 on core 3...Done.
Initializing Devices 0-1 on core 4...Done.
Initializing Devices 0-1 on core 5...Done.
Initializing Devices 0-1 on core 6...Done.
Initializing Devices 0-1 on core 7...Done.
Initializing Devices 0-1 on core 8...Done.
Initializing Devices 0-1 on core 9...Done.
Initializing Devices 0-1 on core 10...Done.
Initializing Devices 0-1 on core 11...Done.

Total wall time: 2:05:18
