LAMMPS (29 Sep 2021)
  using 1 OpenMP thread(s) per MPI task
Reading restart file ...
  restart file = 29 Sep 2021, LAMMPS = 29 Sep 2021
  restoring atom style atomic from restart
  orthogonal box = (-0.75647625 -0.75307094 0.0000000) to (101.82915 101.82574 612.97400)
  3 by 2 by 16 MPI processor grid
  pair style hybrid/overlay stores no restart info
  430002 atoms
  read_restart CPU = 0.179 seconds
Resetting global fix info from restart file:
  fix style: npt, fix ID: 2

CITE-CITE-CITE-CITE-CITE-CITE-CITE-CITE-CITE-CITE-CITE-CITE-CITE

Your simulation uses code contributions which should be cited:
- @article{cjiang2012
The log file lists these citations in BibTeX format.

CITE-CITE-CITE-CITE-CITE-CITE-CITE-CITE-CITE-CITE-CITE-CITE-CITE

All restart file global fix info was re-assigned
Unused restart file peratom fix info:
  fix style: STORE, fix ID: spatialbins_COMPUTE_STORE
Neighbor list info ...
  update every 1 steps, delay 10 steps, check yes
  max neighbors/atom: 2000, page size: 100000
  master list distance cutoff = 8.28721
  ghost atom cutoff = 8.28721
  binsize = 4.143605, bins = 25 25 148
  3 neighbor lists, perpetual/occasional/extra = 3 0 0
  (1) pair eam/alloy, perpetual, skip from (3)
      attributes: half, newton on
      pair build: skip
      stencil: none
      bin: none
  (2) pair edip/multi, perpetual
      attributes: full, newton on
      pair build: full/bin/atomonly
      stencil: full/bin/3d
      bin: standard
  (3) neighbor class addition, perpetual, half/full from (2)
      attributes: half, newton on
      pair build: halffull/newton
      stencil: none
      bin: none
Setting up Verlet run ...
  Unit style    : metal
  Current step  : 11000155
  Time step     : 0.00025
Per MPI rank memory allocation (min/avg/max) = 4.711 | 11.98 | 17.65 Mbytes
Step Time Temp PotEng E_pair TotEng Press Volume Lx Ly Lz CPULeft 
11000155            0    300.04098     -1812618     -1812618   -1795941.1    157.69226    6450393.5    102.58562    102.57881      612.974            0 
11010000      2.46125    299.63873   -1812604.8   -1812604.8   -1795950.3   -12.262699    6450539.3    102.58063    102.58612      612.974    25846.539 
11020000      4.96125       300.21   -1812609.7   -1812609.7   -1795923.5    111.27269    6450079.4    102.58699    102.57245      612.974    25615.318 
11030000      7.46125    300.13012     -1812619     -1812619   -1795937.2   -3.7980258    6450618.4    102.58487    102.58314      612.974    25362.247 
11040000      9.96125    299.85772   -1812600.4   -1812600.4   -1795933.7     54.54846    6450037.9    102.58149    102.57729      612.974    25101.358 
11050000     12.46125    299.91525   -1812606.6   -1812606.6   -1795936.7   -1.5322396    6450686.9     102.5799     102.5892      612.974    24839.554 
11060000     14.96125    300.19259   -1812592.3   -1812592.3     -1795907   -97.246329    6451039.9    102.58172      102.593      612.974    24583.556 
11070000     17.46125    299.44451   -1812604.4   -1812604.4   -1795960.7   -87.396422    6450695.1    102.58957    102.57966      612.974    24322.599 
11080000     19.96125    299.97483   -1812612.6   -1812612.6   -1795939.4  -0.95121636      6450322    102.58428    102.57901      612.974    24057.659 
11090000     22.46125    299.92996   -1812616.9   -1812616.9   -1795946.2   -70.104623    6450508.1    102.58035     102.5859      612.974    23798.922 
11100000     24.96125    299.36164     -1812599     -1812599   -1795959.9    1.0816561    6450524.9     102.5786    102.58792      612.974    23540.798 
11110000     27.46125    299.79388   -1812601.8   -1812601.8   -1795938.6    93.013052    6450079.4    102.58646    102.57298      612.974    23280.426 
11120000     29.96125    300.13717   -1812625.6   -1812625.6   -1795943.4    65.932992    6450295.7    102.57501    102.58787      612.974    23015.772 
11130000     32.46125    300.15586   -1812617.3   -1812617.3   -1795934.1    -41.63735    6451201.2     102.5902    102.58707      612.974    22755.599 
11140000     34.96125    300.06886   -1812612.9   -1812612.9   -1795934.5    96.453857    6450419.7    102.57928    102.58557      612.974    22494.944 
11150000     37.46125     299.5091   -1812622.8   -1812622.8   -1795975.5   -139.19504      6451281    102.58992    102.58863      612.974    22231.846 
11160000     39.96125    300.16384   -1812610.4   -1812610.4   -1795926.7    131.89828    6450720.6    102.59174    102.57789      612.974    21969.639 
11170000     42.46125    299.67905   -1812626.2   -1812626.2   -1795969.4    41.204002    6451368.3    102.58738    102.59256      612.974    21708.835 
11180000     44.96125    299.91965   -1812631.9   -1812631.9   -1795961.8    42.086826      6450967    102.57718    102.59638      612.974    21447.345 
11190000     47.46125    299.64736   -1812609.4   -1812609.4   -1795954.4   -236.91691    6451988.9    102.59188    102.59792      612.974    21185.027 
11200000     49.96125    300.37407   -1812620.9   -1812620.9   -1795925.5   -9.7211903    6451045.5    102.59855    102.57625      612.974    20923.009 
11210000     52.46125    300.15558   -1812601.2   -1812601.2   -1795917.9   -8.9369689    6450833.4    102.58147    102.58995      612.974    20660.098 
11220000     54.96125    300.05869   -1812637.5   -1812637.5   -1795959.6   -44.072383    6450914.9    102.58274    102.58998      612.974    20396.744 
11230000     57.46125    300.36436     -1812627     -1812627   -1795932.2   -138.03183    6451339.5    102.58954    102.58994      612.974    20134.942 
11240000     59.96125     299.7726   -1812623.8   -1812623.8   -1795961.8    3.3389536    6450931.5    102.58389     102.5891      612.974    19872.158 
11250000     62.46125    300.04607     -1812611     -1812611   -1795933.9     67.81261      6450859    102.58862    102.58322      612.974    19610.462 
11260000     64.96125    300.28362   -1812623.7   -1812623.7   -1795933.3   -12.040029    6450724.3     102.5833    102.58639      612.974    19349.582 
11270000     67.46125    300.10221   -1812597.7   -1812597.7   -1795917.4   -33.341012    6451410.5    102.59028    102.59032      612.974    19088.541 
11280000     69.96125    299.90781     -1812583     -1812583   -1795913.5   -5.0970032    6451128.2    102.58102     102.5951      612.974    18828.056 
11290000     72.46125    300.54316   -1812621.8   -1812621.8     -1795917   -4.5383332    6450861.7     102.5872    102.58468      612.974    18566.922 
11300000     74.96125    300.37158   -1812605.3   -1812605.3     -1795910    66.201535    6450738.2    102.58189    102.58803      612.974     18306.79 
11310000     77.46125    299.66545   -1812594.7   -1812594.7   -1795938.7    157.23027    6450937.2    102.58724    102.58584      612.974    18045.657 
11320000     79.96125    299.84143   -1812640.2   -1812640.2   -1795974.4   -172.77132    6452121.9     102.5929    102.59902      612.974    17783.305 
11330000     82.46125    299.64765   -1812591.1   -1812591.1   -1795936.1    -17.65886    6450830.3    102.58001    102.59137      612.974    17522.028 
11340000     84.96125    299.72303   -1812614.7   -1812614.7   -1795955.5    -12.92864    6450711.4    102.58299     102.5865      612.974    17260.411 
11350000     87.46125    299.87857     -1812623     -1812623   -1795955.1   -29.078651    6450547.4    102.58403    102.58285      612.974    16998.934 
11360000     89.96125    299.88213   -1812598.7   -1812598.7   -1795930.7    3.1916073    6450017.8    102.58036     102.5781      612.974    16737.496 
11370000     92.46125    300.22922   -1812630.3   -1812630.3   -1795942.9    33.644989    6450101.8    102.58198    102.57782      612.974    16475.995 
11380000     94.96125    299.72177   -1812597.4   -1812597.4   -1795938.3   -16.183416    6450563.5    102.58215    102.58499      612.974    16214.435 
11390000     97.46125    299.86689   -1812606.6   -1812606.6   -1795939.4     131.8186    6450447.4     102.5841    102.58119      612.974    15953.511 
11400000     99.96125    299.90471   -1812580.7   -1812580.7   -1795911.4   -9.0878912    6450799.6    102.57904    102.59186      612.974     15691.92 
11410000    102.46125    299.93492   -1812589.8   -1812589.8   -1795918.9   -58.149209    6451816.1    102.58533    102.60173      612.974    15430.396 
11420000    104.96125    300.29562     -1812625     -1812625     -1795934    72.331991      6451385    102.59048    102.58972      612.974    15168.525 
11430000    107.46125    300.08944   -1812619.8   -1812619.8   -1795940.2   -104.80059    6452164.8    102.59588    102.59672      612.974    14907.161 
11440000    109.96125    299.69182   -1812626.1   -1812626.1   -1795968.6    76.798976    6450744.4    102.58294    102.58707      612.974     14645.66 
11450000    112.46125    299.90532   -1812619.9   -1812619.9   -1795950.6   -48.353983    6451136.2    102.58187    102.59437      612.974    14384.014 
11460000    114.96125    300.04229   -1812636.1   -1812636.1   -1795959.2   -29.626938    6450989.6    102.58723    102.58669      612.974    14121.986 
11470000    117.46125    299.84857   -1812614.5   -1812614.5   -1795948.3   -100.15503    6451005.8    102.58201    102.59216      612.974     13860.65 
11480000    119.96125    300.11426   -1812628.4   -1812628.4   -1795947.4   -113.78396      6450978    102.59877    102.57496      612.974    13599.497 
11490000    122.46125      299.679   -1812609.4   -1812609.4   -1795952.7    17.719893    6451009.7    102.58417    102.59007      612.974     13337.96 
11500000    124.96125    299.22726   -1812602.6   -1812602.6     -1795971   -114.23312    6451259.5    102.59402    102.58418      612.974    13076.079 
11510000    127.46125    300.22884   -1812607.6   -1812607.6   -1795920.3   -199.37085    6451450.9    102.58959    102.59166      612.974    12814.337 
11520000    129.96125     299.7938   -1812630.1   -1812630.1     -1795967    37.432767    6450277.6    102.57762    102.58497      612.974    12552.969 
11530000    132.46125     299.7751     -1812614     -1812614   -1795951.9    28.226575    6450790.3    102.58477    102.58598      612.974    12291.256 
11540000    134.96125    300.14804   -1812630.8   -1812630.8   -1795947.9    15.491156    6450835.6      102.589    102.58246      612.974    12029.366 
11550000    137.46125    300.57058   -1812619.5   -1812619.5   -1795913.2    43.214114      6451061    102.59382    102.58123      612.974    11768.027 
11560000    139.96125    299.97615   -1812621.9   -1812621.9   -1795948.6   -121.38901    6451764.8    102.59824      102.588      612.974    11506.738 
11570000    142.46125    299.74656   -1812623.2   -1812623.2   -1795962.7   -91.241507    6451575.2    102.59713     102.5861      612.974    11245.049 
11580000    144.96125     299.8515   -1812633.3   -1812633.3   -1795966.9    5.0431525      6451388    102.58719    102.59306      612.974    10983.527 
11590000    147.46125    299.82941   -1812619.6   -1812619.6   -1795954.5   -107.52541    6451399.1    102.57984    102.60058      612.974     10722.29 
11600000    149.96125    300.03681   -1812610.3   -1812610.3   -1795933.6    72.177841    6450099.8    102.57165    102.58811      612.974    10460.918 
11610000    152.46125    300.33561   -1812628.1   -1812628.1   -1795934.8    -10.91066    6451291.1    102.59005    102.58865      612.974    10199.509 
11620000    154.96125    299.55102   -1812595.1   -1812595.1   -1795945.5   -7.3744922    6450364.8    102.58062    102.58336      612.974    9938.2761 
11630000    157.46125    300.08817   -1812584.7   -1812584.7   -1795905.2   -122.56321    6451569.4    102.58899    102.59414      612.974    9676.7592 
11640000    159.96125    300.12606   -1812602.5   -1812602.5   -1795920.9   -99.188536    6451807.8    102.59468    102.59225      612.974    9415.1667 
11650000    162.46125    300.07483   -1812622.8   -1812622.8     -1795944   -70.911925    6451114.6    102.58512    102.59078      612.974    9153.7169 
11660000    164.96125    299.76218   -1812622.8   -1812622.8   -1795961.5   -3.3104211    6450990.4    102.58913     102.5848      612.974    8892.1407 
11670000    167.46125    300.51878   -1812633.8   -1812633.8   -1795930.4   -105.41406    6452660.1     102.5964    102.60408      612.974    8630.6857 
11680000    169.96125    300.44333   -1812623.9   -1812623.9   -1795924.6    24.823041    6451647.2    102.59151    102.59286      612.974    8369.3588 
11690000    172.46125    299.67488   -1812622.2   -1812622.2   -1795965.6    127.60386    6450729.6    102.58189    102.58789      612.974    8108.0284 
11700000    174.96125    300.49576   -1812634.1   -1812634.1     -1795932   -131.57684    6451906.1    102.59293    102.59555      612.974    7846.5835 
11710000    177.46125    300.24812   -1812625.3   -1812625.3   -1795936.9     59.11487    6450860.7    102.58468    102.58719      612.974    7585.1084 
11720000    179.96125    300.00288   -1812598.9   -1812598.9   -1795924.2    100.39727    6450243.2     102.5852    102.57685      612.974    7323.5616 
11730000    182.46125    300.31435     -1812615     -1812615   -1795922.9   -21.115922    6450803.2    102.58644    102.58451      612.974    7062.1158 
11740000    184.96125    299.70439   -1812598.5   -1812598.5   -1795940.3    -19.17554    6450682.4      102.584    102.58503      612.974    6800.7886 
11750000    187.46125    300.01068   -1812617.2   -1812617.2     -1795942   -74.287353      6450791    102.58724    102.58352      612.974    6539.4623 
11760000    189.96125    300.78603   -1812629.3   -1812629.3     -1795911   -5.5447411    6451413.4    102.59213    102.58852      612.974    6278.0633 
11770000    192.46125    299.99209   -1812580.8   -1812580.8   -1795906.7    91.875919    6450978.5    102.57592    102.59782      612.974    6016.6706 
11780000    194.96125    300.23772   -1812631.9   -1812631.9   -1795944.1   -35.499364      6451708    102.58274     102.6026      612.974     5755.278 
11790000    197.46125    300.02472   -1812624.9   -1812624.9   -1795948.9    193.68699      6450658    102.58241    102.58623      612.974    5493.9395 
11800000    199.96125    300.08323   -1812630.5   -1812630.5   -1795951.2    81.370135    6451107.9    102.58349    102.59231      612.974    5232.4729 
11810000    202.46125    299.66971   -1812613.7   -1812613.7   -1795957.5   -12.199582    6451421.1    102.59494    102.58583      612.974    4971.0019 
11820000    204.96125     300.2727   -1812632.3   -1812632.3   -1795942.5   -34.322475    6451904.2    102.59522    102.59324      612.974    4709.6486 
11830000    207.46125    299.99344   -1812617.7   -1812617.7   -1795943.4   -61.536578      6451298    102.58603    102.59279      612.974    4448.2278 
11840000    209.96125    299.76865   -1812596.6   -1812596.6   -1795934.9   -73.661944    6450827.6    102.58274     102.5886      612.974     4186.794 
11850000    212.46125     299.8347   -1812601.6   -1812601.6   -1795936.2    120.84204    6450668.9    102.57824    102.59058      612.974     3925.355 
11860000    214.96125     300.1866   -1812603.9   -1812603.9   -1795918.9    54.839895    6450961.4    102.57457     102.5989      612.974    3663.9296 
11870000    217.46125    299.98718   -1812613.5   -1812613.5   -1795939.6   -26.869775    6451100.2    102.58463    102.59104      612.974    3402.5062 
11880000    219.96125    300.33139   -1812662.3   -1812662.3   -1795969.3   -85.046347    6451656.4    102.59969    102.58482      612.974    3141.0911 
11890000    222.46125    299.95011   -1812615.6   -1812615.6   -1795943.8    73.077245    6451066.4    102.58618    102.58895      612.974    2879.6572 
11900000    224.96125    299.93813   -1812617.6   -1812617.6   -1795946.4   -51.453187    6451479.3    102.58647    102.59523      612.974    2618.2374 
11910000    227.46125    299.80626   -1812598.6   -1812598.6   -1795934.8    119.02336    6450508.3    102.58092    102.58534      612.974    2356.8168 
11920000    229.96125    300.01894   -1812610.9   -1812610.9   -1795935.3    107.17278    6451058.3    102.58855    102.58646      612.974    2095.3935 
11930000    232.46125    299.80336   -1812623.9   -1812623.9   -1795960.2    117.59213    6450482.6    102.58155     102.5843      612.974    1833.9614 
11940000    234.96125     299.8618   -1812612.9   -1812612.9     -1795946   -155.03634    6452045.2    102.59577    102.59493      612.974    1572.5655 
11950000    237.46125    299.92298   -1812601.1   -1812601.1   -1795930.8   -5.7948127    6451622.3    102.58819    102.59578      612.974    1311.1519 
11960000    239.96125    299.62384   -1812580.7   -1812580.7     -1795927    61.168936    6451266.2    102.59049    102.58782      612.974    1049.7322 
11970000    242.46125    299.81032   -1812649.3   -1812649.3   -1795985.2   -45.933756    6451528.6    102.58531    102.59718      612.974    788.30345 
11980000    244.96125    300.00642   -1812638.1   -1812638.1   -1795963.2   -120.52382    6451861.8    102.59551    102.59227      612.974    526.88202 
11990000    247.46125    299.20038     -1812598     -1812598   -1795967.8   -87.027443    6451423.7    102.58259    102.59823      612.974    265.46532 
12000000    249.96125    299.76635   -1812632.1   -1812632.1   -1795970.4   -57.394489    6451229.7    102.58408    102.59366      612.974    4.0519322 
12000155          250    300.23529   -1812611.7   -1812611.7     -1795924    -14.40356    6450639.7    102.58727    102.58108      612.974            0 
Loop time of 26141.5 on 96 procs for 1000000 steps with 430002 atoms

Performance: 0.826 ns/day, 29.046 hours/ns, 38.253 timesteps/s
100.0% CPU use with 96 MPI tasks x 1 OpenMP threads

MPI task timing breakdown:
Section |  min time  |  avg time  |  max time  |%varavg| %total
---------------------------------------------------------------
Pair    | 2.8128     | 18302      | 25017      |5523.5 | 70.01
Neigh   | 0.010988   | 61.329     | 93.965     | 373.8 |  0.23
Comm    | 1.7674     | 3477.9     | 10471      |5554.8 | 13.30
Output  | 1.9215     | 1.9233     | 1.9264     |   0.1 |  0.01
Modify  | 532.42     | 4215.8     | 26024      |12716.3 | 16.13
Other   |            | 82.96      |            |       |  0.32

Nlocal:        4479.19 ave        6319 max           0 min
Histogram: 12 0 0 0 12 0 0 23 19 30
Nghost:        8201.70 ave       11326 max           0 min
Histogram: 12 0 0 0 12 0 0 0 49 23
Neighs:         0.00000 ave           0 max           0 min
Histogram: 96 0 0 0 0 0 0 0 0 0
FullNghs:      863251.0 ave  1.3392e+06 max           0 min
Histogram: 12 0 0 12 0 12 12 12 12 24

Total # of neighbors = 82872098
Ave neighs/atom = 192.72491
Neighbor list builds = 2605
Dangerous builds = 0
System init for write_restart ...
System init for write_data ...
Total wall time: 7:15:42
