LAMMPS (29 Sep 2021)
  using 1 OpenMP thread(s) per MPI task
Reading data file ...
  orthogonal box = (0.60786045 0.61968883 0.0000000) to (100.63922 100.62740 541.67200)
  3 by 2 by 16 MPI processor grid
  reading atoms ...
  437300 atoms
  reading velocities ...
  437300 velocities
  read_data CPU = 4.277 seconds
218650 atoms in group g_left
218650 atoms in group g_right

CITE-CITE-CITE-CITE-CITE-CITE-CITE-CITE-CITE-CITE-CITE-CITE-CITE

Your simulation uses code contributions which should be cited:
- @article{cjiang2012
The log file lists these citations in BibTeX format.

CITE-CITE-CITE-CITE-CITE-CITE-CITE-CITE-CITE-CITE-CITE-CITE-CITE

Neighbor list info ...
  update every 1 steps, delay 10 steps, check yes
  max neighbors/atom: 2000, page size: 100000
  master list distance cutoff = 8.28721
  ghost atom cutoff = 8.28721
  binsize = 4.143605, bins = 25 25 131
  3 neighbor lists, perpetual/occasional/extra = 3 0 0
  (1) pair eam/alloy, perpetual, skip from (3)
      attributes: half, newton on
      pair build: skip
      stencil: none
      bin: none
  (2) pair edip/multi, perpetual
      attributes: full, newton on
      pair build: full/bin/atomonly
      stencil: full/bin/3d
      bin: standard
  (3) neighbor class addition, perpetual, half/full from (2)
      attributes: half, newton on
      pair build: halffull/newton
      stencil: none
      bin: none
Setting up Verlet run ...
  Unit style    : metal
  Current step  : 0
  Time step     : 0.00025
Per MPI rank memory allocation (min/avg/max) = 10.07 | 12.34 | 14.51 Mbytes
Step Time Temp Press PotEng KinEng TotEng Volume 
       0            0    4575.6205    47598.069   -2025958.9    258638.47   -1767320.5    5418836.5 
     100        0.025    4575.4995     47880.28     -2025992    258631.63   -1767360.4    5411333.5 
     200         0.05    4575.4569    47672.577   -2025991.9    258629.22   -1767362.7    5403830.6 
     300        0.075    4575.3282    47710.607   -2025967.2    258621.95   -1767345.3    5396327.7 
     400          0.1    4574.9343    47944.103     -2025950    258599.68   -1767350.3    5388824.7 
     500        0.125    4575.1093    47842.254   -2025983.6    258609.58     -1767374    5381321.8 
     600         0.15    4574.8564    47884.285   -2025977.6    258595.28   -1767382.3    5373818.9 
     700        0.175    4574.8891    47699.486   -2025967.6    258597.13   -1767370.5      5366316 
     800          0.2    4575.1981    48015.661   -2025980.4    258614.59   -1767365.8      5358813 
     900        0.225    4574.7123    47865.496   -2025965.7    258587.13   -1767378.6    5351310.1 
    1000         0.25    4574.7593    48087.718   -2025976.1    258589.79   -1767386.3    5343807.2 
    1100        0.275     4574.716    48404.685     -2025968    258587.34   -1767380.6    5336304.2 
    1200          0.3    4575.4263    48424.255   -2026012.1    258627.49   -1767384.6    5328801.3 
    1300        0.325    4574.3068    48139.684   -2025970.7    258564.21   -1767406.5    5321298.4 
    1400         0.35     4574.029    48543.821   -2025968.4    258548.51   -1767419.9    5313795.4 
    1500        0.375    4574.4299    48650.533   -2025980.8    258571.17   -1767409.7    5306292.5 
    1600          0.4     4574.247    48603.231     -2025957    258560.83   -1767396.2    5298789.6 
    1700        0.425    4574.9149    48740.518   -2025996.4    258598.58   -1767397.8    5291286.6 
    1800         0.45    4574.2281    48723.515   -2025957.3    258559.76   -1767397.5    5283783.7 
    1900        0.475    4575.3067    48775.076   -2026002.7    258620.73     -1767382    5276280.8 
    2000          0.5    4575.2274    49119.441   -2025984.9    258616.25   -1767368.6    5268777.9 
    2100        0.525    4575.2539    49105.495   -2025983.3    258617.75   -1767365.5    5261274.9 
    2200         0.55    4574.9806    48566.309   -2025962.1     258602.3   -1767359.8      5253772 
    2300        0.575    4575.3494    49163.946   -2025967.9    258623.14   -1767344.8    5246269.1 
    2400          0.6    4575.7999     48996.27   -2025977.8    258648.61   -1767329.2    5238766.1 
    2500        0.625      4575.96    49007.448   -2025978.8    258657.66   -1767321.1    5231263.2 
    2600         0.65    4576.1309    49136.553   -2025980.9    258667.32   -1767313.6    5223760.3 
    2700        0.675    4576.2169    49557.103   -2025967.8    258672.18   -1767295.6    5216257.3 
    2800          0.7    4576.6614    49376.749   -2025973.9    258697.31   -1767276.6    5208754.4 
    2900        0.725    4576.5712    49814.197   -2025969.4    258692.21   -1767277.2    5201251.5 
    3000         0.75    4576.5959    49770.221   -2025987.1     258693.6   -1767293.5    5193748.5 
    3100        0.775    4576.3528    49874.147   -2025984.6    258679.86   -1767304.7    5186245.6 
    3200          0.8    4576.7215     49802.14   -2026001.4     258700.7   -1767300.7    5178742.7 
    3300        0.825    4577.5342    50237.763   -2026039.7    258746.64   -1767293.1    5171239.8 
    3400         0.85    4578.6127     51299.63   -2026098.7     258807.6   -1767291.1    5163736.8 
    3500        0.875    4573.3922    54476.411   -2025798.9    258512.51   -1767286.4    5156233.9 
    3600          0.9    4554.3022    63443.684     -2024716    257433.44   -1767282.6      5148731 
    3700        0.925    4508.8041    78195.628   -2022151.5    254861.65   -1767289.9      5141228 
    3800         0.95    4444.9912    96505.122   -2018554.3     251254.6   -1767299.7    5133725.1 
    3900        0.975    4378.1872     114368.1   -2014775.6    247478.49   -1767297.2    5126222.2 
    4000            1    4313.0361    131145.41   -2011075.7     243795.8   -1767279.9    5118719.2 
    4100        1.025    4253.3104    144444.18   -2007685.2    240419.78   -1767265.4    5111216.3 
    4200         1.05    4199.7138    153054.18   -2004662.5    237390.22   -1767272.3    5103713.4 
    4300        1.075    4159.1377    156207.17   -2002382.2    235096.64   -1767285.5    5096210.5 
    4400          1.1    4135.0772    155241.22   -2001019.6    233736.61     -1767283    5088707.5 
    4500        1.125      4122.86    152022.93   -2000317.1    233046.03     -1767271    5081204.6 
    4600         1.15    4120.5518     147388.6   -2000178.1    232915.56   -1767262.5    5073701.7 
    4700        1.175    4123.2223    141874.66   -2000321.3    233066.51   -1767254.8    5066198.7 
    4800          1.2    4126.4881    135812.19   -2000488.4    233251.11   -1767237.3    5058695.8 
    4900        1.225    4131.7631    130273.37   -2000770.9    233549.28   -1767221.6    5051192.9 
    5000         1.25    4133.1221    126561.43   -2000847.7     233626.1   -1767221.6    5043689.9 
    5100        1.275    4131.9348    122218.85   -2000801.1    233558.99   -1767242.1      5036187 
    5200          1.3    4126.6788    117192.15   -2000522.7    233261.89   -1767260.8    5028684.1 
    5300        1.325    4120.1866    112806.98   -2000151.8    232894.91   -1767256.9    5021181.1 
    5400         1.35    4110.0668    110090.17   -1999572.5    232322.89   -1767249.6    5013678.2 
    5500        1.375     4098.537    106760.39   -1998925.4    231671.17   -1767254.2    5006175.3 
    5600          1.4    4084.5286    104464.09   -1998145.2    230879.33   -1767265.8    4998672.4 
    5700        1.425    4069.1682    102047.42   -1997279.2    230011.08   -1767268.2    4991169.4 
    5800         1.45    4052.7934    101248.01   -1996344.7    229085.49   -1767259.2    4983666.5 
    5900        1.475    4031.5921     102118.2   -1995143.2    227887.08   -1767256.1    4976163.6 
    6000          1.5    4002.3309    101727.28   -1993487.3    226233.09   -1767254.2    4968660.6 
    6100        1.525    3965.9472    104450.95   -1991424.2    224176.48   -1767247.7    4961157.7 
    6200         1.55    3928.2872    106055.58   -1989292.7    222047.74   -1767244.9    4953654.8 
    6300        1.575    3891.6277    109587.96   -1987233.5    219975.55     -1767258    4946151.8 
    6400          1.6    3858.5896    112745.03   -1985385.6    218108.06   -1767277.6    4938648.9 
    6500        1.625    3826.9825    114914.54     -1983603    216321.46   -1767281.5      4931146 
    6600         1.65    3802.8315    119199.89     -1982227    214956.31   -1767270.7    4923643.1 
    6700        1.675    3779.3827     122252.7   -1980895.9    213630.86     -1767265    4916140.1 
    6800          1.7    3756.5957    126264.19   -1979610.1    212342.82   -1767267.3    4908637.2 
    6900        1.725    3736.3391     131153.3   -1978452.5    211197.81   -1767254.6    4901134.3 
    7000         1.75    3716.5819    137622.33   -1977300.5    210081.03   -1767219.5    4893631.3 
    7100        1.775     3697.663    144081.86   -1976204.8    209011.63   -1767193.2    4886128.4 
    7200          1.8    3678.1219    149380.38   -1975109.8    207907.06   -1767202.7    4878625.5 
    7300        1.825    3663.4135    155337.46     -1974302    207075.67   -1767226.4    4871122.5 
    7400         1.85    3648.6408    161567.71   -1973476.7    206240.63     -1767236    4863619.6 
    7500        1.875    3632.9344    168875.34   -1972582.9    205352.82   -1767230.1    4856116.7 
    7600          1.9     3618.657    174423.17   -1971772.7    204545.79   -1767226.9    4848613.7 
    7700        1.925    3600.5631    180363.48   -1970753.5    203523.03   -1767230.5    4841110.8 
    7800         1.95    3581.8137    186573.49   -1969685.6    202463.21   -1767222.4    4833607.9 
    7900        1.975    3559.7141    194724.66   -1968417.5    201214.02   -1767203.5      4826105 
    8000            2    3533.9787    200355.54   -1966957.1    199759.32   -1767197.8      4818602 
    8100        2.025    3506.2752     208359.5     -1965407    198193.37   -1767213.6    4811099.1 
    8200         2.05    3481.2031    213559.76   -1964011.8    196776.16   -1767235.6    4803596.2 
    8300        2.075    3453.8571    220513.03   -1962483.4    195230.42     -1767253    4796093.2 
    8400          2.1    3425.0094    226223.72   -1960866.2    193599.79   -1767266.4    4788590.3 
    8500        2.125    3398.1086    231067.25   -1959361.5    192079.22   -1767282.3    4781087.4 
    8600         2.15    3370.5737    236173.87   -1957818.8     190522.8     -1767296    4773584.4 
    8700        2.175    3343.0009    238200.01   -1956267.1    188964.24   -1767302.8    4766081.5 
    8800          2.2    3315.8784    241653.88     -1954739    187431.13   -1767307.8    4758578.6 
    8900        2.225     3289.129    244284.38   -1953226.1    185919.11     -1767307    4751075.7 
    9000         2.25    3263.6578    246931.59   -1951779.3    184479.34     -1767300    4743572.7 
    9100        2.275    3238.8219    249844.65   -1950371.7    183075.48   -1767296.2    4736069.8 
    9200          2.3    3211.8718    250967.42   -1948855.6    181552.12   -1767303.4    4728566.9 
    9300        2.325    3186.8798    251657.56     -1947458    180139.44   -1767318.5    4721063.9 
    9400         2.35    3157.9101     254084.2   -1945827.7    178501.92   -1767325.8      4713561 
    9500        2.375    3132.5066    255766.75   -1944391.2    177065.98   -1767325.2    4706058.1 
    9600          2.4    3103.6901    259471.35   -1942765.4    175437.11   -1767328.3    4698555.1 
    9700        2.425    3076.3177    261018.36   -1941232.8    173889.88   -1767342.9    4691052.2 
    9800         2.45    3047.6946    263616.34   -1939627.8    172271.95   -1767355.8    4683549.3 
    9900        2.475    3020.2879    266736.14     -1938077    170722.78   -1767354.3    4676046.3 
   10000          2.5    3011.6939    267339.44     -1937576       170237   -1767339.1    4668543.4 
   10100        2.525    3003.2687    269009.62   -1937085.3    169760.76   -1767324.6    4661040.5 
   10200         2.55    2979.9181    271167.95   -1935757.4    168440.86   -1767316.5    4653537.6 
   10300        2.575    2964.4748    271734.98     -1934880    167567.92     -1767312    4646034.6 
   10400          2.6    2956.9202    274125.39   -1934455.9    167140.89     -1767315    4638531.7 
   10500        2.625    2930.1192    277640.31   -1932942.6    165625.96   -1767316.6    4631028.8 
   10600         2.65    2921.6468    280435.64   -1932454.1    165147.06   -1767307.1    4623525.8 
   10700        2.675    2914.0762     280588.7   -1932005.4    164719.12   -1767286.3    4616022.9 
   10800          2.7    2891.3301    285776.51   -1930711.1    163433.39   -1767277.7      4608520 
   10900        2.725    2886.4725    287209.33   -1930447.9    163158.82     -1767289      4601017 
   11000         2.75    2867.3792    290504.32   -1929379.8    162079.56   -1767300.2    4593514.1 
   11100        2.775     2857.779     294654.6   -1928839.4    161536.91   -1767302.5    4586011.2 
   11200          2.8     2843.338    298631.35   -1928022.2    160720.62   -1767301.6    4578508.3 
   11300        2.825    2823.6362    301458.97     -1926915    159606.98   -1767308.1    4571005.3 
   11400         2.85    2816.5489    305145.53   -1926520.5    159206.36   -1767314.2    4563502.4 
   11500        2.875    2799.6539    306890.46   -1925561.4    158251.37   -1767310.1    4555999.5 
   11600          2.9    2790.0128     310728.7   -1925016.2     157706.4   -1767309.8    4548496.5 
   11700        2.925    2780.1273    314912.48   -1924474.1    157147.62   -1767326.4    4540993.6 
   11800         2.95    2757.9324    318728.04   -1923236.3    155893.05   -1767343.3    4533490.7 
   11900        2.975    2748.4726    320342.62   -1922700.3    155358.33     -1767342    4525987.7 
   12000            3    2728.4679    322997.93   -1921556.7    154227.56   -1767329.1    4518484.8 
   12100        3.025    2711.7607    325784.69   -1920610.6    153283.18   -1767327.4    4510981.9 
   12200         3.05    2694.8153    328389.82   -1919658.1    152325.33   -1767332.8    4503478.9 
   12300        3.075    2675.7424    330881.74   -1918578.5    151247.23   -1767331.2      4495976 
   12400          3.1    2659.3807    333759.34   -1917646.7    150322.38   -1767324.4    4488473.1 
   12500        3.125    2644.0831    336862.62   -1916778.8    149457.68   -1767321.2    4480970.2 
   12600         3.15    2622.5871    340114.41   -1915571.3    148242.61   -1767328.7    4473467.2 
   12700        3.175    2604.7956    341132.97   -1914575.8    147236.94   -1767338.8    4465964.3 
   12800          3.2     2582.792     344826.5   -1913331.3    145993.18   -1767338.1    4458461.4 
   12900        3.225    2561.1252    348070.06   -1912100.6    144768.45   -1767332.1    4450958.4 
   13000         3.25    2537.4408    350593.96   -1910760.7    143429.69     -1767331    4443455.5 
   13100        3.275    2511.9615    354666.36   -1909326.6    141989.46   -1767337.1    4435952.6 
   13200          3.3    2486.1575    357346.23     -1907879    140530.88   -1767348.1    4428449.6 
   13300        3.325    2459.1805    360031.88   -1906366.2       139006   -1767360.2    4420946.7 
   13400         3.35    2437.8745    364987.98     -1905170    137801.66   -1767368.3    4413443.8 
   13500        3.375    2411.8089    368656.25   -1903704.1     136328.3   -1767375.8    4405940.9 
   13600          3.4    2389.0393    373047.62     -1902428    135041.24   -1767386.7    4398437.9 
   13700        3.425    2366.8118    375919.28   -1901188.8    133784.82     -1767404      4390935 
   13800         3.45    2343.1653    380235.63   -1899863.9     132448.2   -1767415.7    4383432.1 
   13900        3.475    2319.2848    383254.08   -1898506.2    131098.34   -1767407.9    4375929.1 
   14000          3.5    2296.4895    387155.94   -1897202.9    129809.83   -1767393.1    4368426.2 
   14100        3.525    2269.8317    390759.78   -1895697.1    128302.99   -1767394.1    4360923.3 
   14200         3.55    2241.9133    396663.07   -1894136.6     126724.9   -1767411.7    4353420.3 
   14300        3.575    2218.1593    398005.63   -1892803.8    125382.19   -1767421.6    4345917.4 
   14400          3.6    2190.1178     402553.8   -1891215.4    123797.14   -1767418.3    4338414.5 
   14500        3.625    2162.1038    405568.42   -1889631.5    122213.63   -1767417.9    4330911.5 
   14600         3.65    2133.1618     408391.9   -1888006.4    120577.68   -1767428.7    4323408.6 
   14700        3.675    2101.9782     411133.1   -1886249.2    118815.01   -1767434.1    4315905.7 
   14800          3.7    2072.8755    414138.02   -1884598.1    117169.97   -1767428.1    4308402.8 
   14900        3.725    2037.3143    418550.52   -1882589.6    115159.87   -1767429.7    4300899.8 
   15000         3.75    2005.4213     421700.3   -1880805.2    113357.11   -1767448.1    4293396.9 
   15100        3.775    1969.2224    424692.93   -1878768.7    111310.95   -1767457.8      4285894 
   15200          3.8    1936.4886    425779.31   -1876899.4    109460.66   -1767438.7      4278391 
   15300        3.825    1901.6226    430647.63   -1874904.7    107489.85   -1767414.9    4270888.1 
   15400         3.85    1863.7221    433983.25   -1872760.2    105347.51   -1767412.6    4263385.2 
   15500        3.875    1829.8289     437956.6   -1870862.3    103431.69   -1767430.6    4255882.2 
   15600          3.9    1795.5198    443402.93   -1868932.6    101492.35   -1767440.2    4248379.3 
   15700        3.925    1760.7181    446362.25   -1866954.9    99525.176   -1767429.8    4240876.4 
   15800         3.95    1728.8069    451211.59   -1865144.1    97721.383   -1767422.7    4233373.5 
   15900        3.975    1701.9477    454571.49   -1863629.5    96203.156   -1767426.4    4225870.5 
   16000            4    1681.1212    457314.24   -1862447.6    95025.932   -1767421.7    4218367.6 
   16100        4.025    1658.6127    460645.37   -1861162.5    93753.636   -1767408.9    4210864.7 
   16200         4.05    1639.2813    461649.11   -1860062.7    92660.921   -1767401.8    4203361.7 
   16300        4.075    1618.3635    464667.67   -1858884.7    91478.535   -1767406.1    4195858.8 
   16400          4.1    1600.3267    466168.46   -1857867.6    90458.996   -1767408.6    4188355.9 
   16500        4.125    1585.2634    468344.93   -1857007.4    89607.539   -1767399.8    4180852.9 
   16600         4.15    1576.3263    472606.63   -1856491.2    89102.367   -1767388.8      4173350 
   16700        4.175    1570.2975    474138.95     -1856146    88761.585   -1767384.4    4165847.1 
   16800          4.2    1564.7314    476823.94   -1855826.7    88446.964   -1767379.7    4158344.1 
   16900        4.225    1558.3598    479461.01   -1855455.1    88086.805   -1767368.3    4150841.2 
   17000         4.25    1552.6166    483696.41   -1855119.8    87762.167   -1767357.6    4143338.3 
   17100        4.275    1546.8549    487885.21   -1854792.8    87436.487   -1767356.3    4135835.4 
   17200          4.3    1542.2463    490928.31   -1854533.4    87175.985   -1767357.4    4128332.4 
   17300        4.325    1542.2711    494358.61   -1854531.3    87177.386   -1767353.9    4120829.5 
   17400         4.35    1537.4414    496909.88   -1854252.8    86904.388   -1767348.4    4113326.6 
   17500        4.375    1533.0904     500402.6   -1854001.4    86658.447     -1767343    4105823.6 
   17600          4.4    1526.7564    503656.91   -1853638.9    86300.414   -1767338.5    4098320.7 
   17700        4.425    1521.4214    507220.08   -1853335.3    85998.848   -1767336.5    4090817.8 
   17800         4.45    1510.7426    513513.24   -1852740.2    85395.225     -1767345    4083314.8 
   17900        4.475    1500.9279    517304.86   -1852204.9    84840.447   -1767364.5    4075811.9 
   18000          4.5    1490.3257    522130.68   -1851617.3    84241.153   -1767376.1      4068309 
   18100        4.525    1479.2579    526505.33   -1850987.1    83615.545   -1767371.6    4060806.1 
   18200         4.55    1464.7722    530232.22     -1850155    82796.736   -1767358.2    4053303.1 
   18300        4.575     1451.986    535792.12   -1849421.5    82073.991   -1767347.5    4045800.2 
   18400          4.6     1435.589    541555.27   -1848485.4    81147.148   -1767338.2    4038297.3 
   18500        4.625    1420.4507     547404.3   -1847612.1    80291.449   -1767320.6    4030794.3 
   18600         4.65     1402.979    551577.42   -1846603.1    79303.855   -1767299.2    4023291.4 
   18700        4.675    1382.0665    557432.57   -1845407.9    78121.769   -1767286.1    4015788.5 
   18800          4.7    1361.0401    562343.19   -1844210.4    76933.244   -1767277.2    4008285.5 
   18900        4.725    1338.2932    565088.51   -1842911.2    75647.467   -1767263.8    4000782.6 
   19000         4.75    1317.4175    571953.95   -1841706.5    74467.462   -1767239.1    3993279.7 
   19100        4.775    1294.0443    575621.76   -1840335.2    73146.286   -1767188.9    3985776.7 
   19200          4.8    1271.0688    578902.61   -1838939.8    71847.585   -1767092.2    3978273.8 
   19300        4.825    1249.0282    585613.52   -1837497.8    70601.736     -1766896    3970770.9 
   19400         4.85    1230.0054    591141.03   -1836036.1    69526.463   -1766509.6      3963268 
   19500        4.875    1212.6048    596472.12     -1834342    68542.886   -1765799.1      3955765 
   19600          4.9    1196.8955    600727.84   -1832274.2    67654.917   -1764619.3    3948262.1 
   19700        4.925    1186.3775    607350.09   -1829975.9    67060.383   -1762915.5    3940759.2 
   19800         4.95    1179.4878    613111.23   -1827416.6    66670.937   -1760745.7    3933256.2 
   19900        4.975    1174.8199    619274.14     -1824679    66407.083   -1758271.9    3925753.3 
   20000            5     1160.226    629705.93   -1821021.7    65582.162   -1755439.6    3918250.4 
   20100        5.025    1160.0002    638851.04   -1816669.8    65569.396   -1751100.4    3910747.4 
   20200         5.05    1201.8164    651993.47   -1811520.1    67933.074   -1743587.1    3903244.5 
   20300        5.075    1274.2188    663368.79   -1806356.3    72025.643   -1734330.6    3895741.6 
   20400          5.1    1303.0845    675159.99   -1800264.5    73657.284   -1726607.2    3888238.6 
   20500        5.125    1308.3317    688509.82   -1794002.6    73953.882   -1720048.7    3880735.7 
   20600         5.15    1333.6959    701111.47   -1787352.7    75387.603   -1711965.1    3873232.8 
   20700        5.175    1393.9302     717222.6   -1780726.6    78792.369   -1701934.3    3865729.9 
   20800          5.2    1450.9345    730816.08   -1774180.6    82014.555     -1692166    3858226.9 
   20900        5.225    1485.1017     743009.7   -1767148.8    83945.869   -1683202.9      3850724 
   21000         5.25    1551.6096    756365.64   -1761046.8    87705.249   -1673341.6    3843221.1 
   21100        5.275    1642.0916    768099.12   -1755291.3    92819.775   -1662471.5    3835718.1 
   21200          5.3    1724.2805    774581.66   -1749856.7     97465.53   -1652391.1    3828215.2 
   21300        5.325    1786.3886    781418.51   -1744142.3    100976.21   -1643166.1    3820712.3 
   21400         5.35    1880.8956    788865.51   -1739398.1    106318.25   -1633079.9    3813209.3 
   21500        5.375    1990.7343    796005.56   -1734734.6    112526.92   -1622207.7    3805706.4 
   21600          5.4     2080.475    805008.68   -1729710.4    117599.54   -1612110.8    3798203.5 
   21700        5.425    2154.1419    812632.53   -1724509.8    121763.59   -1602746.2    3790700.6 
   21800         5.45    2229.4551    822055.28   -1719223.8    126020.69   -1593203.1    3783197.6 
   21900        5.475    2297.2681    830056.85     -1714247    129853.84   -1584393.2    3775694.7 
   22000          5.5    2320.6112    832982.94   -1708759.5    131173.32   -1577586.2    3768191.8 
   22100        5.525    2322.2934    840593.46   -1703274.8    131268.41   -1572006.4    3760688.8 
   22200         5.55    2322.4861    847260.63   -1697614.7     131279.3   -1566335.4    3753185.9 
   22300        5.575    2324.8354    856822.41   -1691878.7    131412.09   -1560466.6      3745683 
   22400          5.6    2313.8491    863848.95   -1685812.4    130791.09   -1555021.3      3738180 
   22500        5.625    2305.4344    873657.97     -1680179    130315.45   -1549863.5    3730677.1 
   22600         5.65    2309.7391    883731.26   -1674898.2    130558.77   -1544339.4    3723174.2 
   22700        5.675    2320.5146    894249.46   -1669797.4    131167.86   -1538629.5    3715671.2 
   22800          5.7    2329.3995    903350.36   -1665224.1    131670.08     -1533554    3708168.3 
   22900        5.725    2336.9933    913288.87   -1661175.6    132099.32   -1529076.3    3700665.4 
   23000         5.75    2352.6443    924836.09   -1657222.2       132984   -1524238.2    3693162.5 
   23100        5.775    2389.8902    934293.88   -1653551.2    135089.34   -1518461.9    3685659.5 
   23200          5.8    2445.2394    945689.28   -1650513.8    138217.97   -1512295.8    3678156.6 
   23300        5.825    2493.9448    957622.25   -1647243.9    140971.06   -1506272.9    3670653.7 
   23400         5.85    2541.8302    968677.95   -1643529.9     143677.8   -1499852.1    3663150.7 
   23500        5.875    2615.6553    980327.43   -1640212.3    147850.79   -1492361.5    3655647.8 
   23600          5.9    2702.5987    991949.42     -1636778    152765.29   -1484012.7    3648144.9 
   23700        5.925    2779.4179      1003080   -1632343.7    157107.52   -1475236.2    3640641.9 
   23800         5.95    2872.3294    1015253.9   -1628098.3    162359.37   -1465738.9      3633139 
   23900        5.975    2965.2595    1026992.7   -1622885.1    167612.28   -1455272.9    3625636.1 
   24000            6    3076.6121    1035893.6   -1618290.8    173906.52   -1444384.3    3618133.2 
   24100        6.025    3169.0608    1045554.2     -1612693    179132.21   -1433560.8    3610630.2 
   24200         6.05    3276.5741    1054410.7   -1607875.6    185209.44   -1422666.1    3603127.3 
   24300        6.075    3398.0494    1064808.2     -1603735    192075.87   -1411659.1    3595624.4 
   24400          6.1    3507.0926    1073183.9   -1599096.5    198239.57   -1400856.9    3588121.4 
   24500        6.125     3627.552      1079370   -1595355.9    205048.58   -1390307.3    3580618.5 
   24600         6.15    3722.7632    1084398.8     -1590263    210430.43   -1379832.6    3573115.6 
   24700        6.175    3828.4508    1092402.1   -1586000.4    216404.45   -1369595.9    3565612.6 
   24800          6.2    3917.9494    1100757.4   -1581295.8    221463.39   -1359832.4    3558109.7 
   24900        6.225    3993.5331    1108343.1   -1576145.7    225735.79   -1350409.9    3550606.8 
   25000         6.25    4069.8274      1115535   -1571291.5    230048.35   -1341243.2    3543103.8 
   25100        6.275    4115.9137    1120240.6   -1565283.7    232653.39   -1332630.3    3535600.9 
   25200          6.3    4157.2449    1129065.3   -1559695.1    234989.65   -1324705.5      3528098 
   25300        6.325      4179.39    1139499.7   -1553355.6    236241.41   -1317114.2    3520595.1 
   25400         6.35    4197.8122    1148877.5   -1546898.4    237282.73   -1309615.6    3513092.1 
   25500        6.375    4208.5762    1159741.2   -1540368.3    237891.17   -1302477.2    3505589.2 
   25600          6.4    4207.1883    1172947.5   -1533795.3    237812.72   -1295982.6    3498086.3 
   25700        6.425    4202.3596    1185291.4   -1527503.3    237539.77   -1289963.5    3490583.3 
   25800         6.45    4191.0108    1198543.2   -1520977.3    236898.28     -1284079    3483080.4 
   25900        6.475    4184.6388    1212737.6   -1514775.4     236538.1   -1278237.3    3475577.5 
   26000          6.5    4175.5012    1227870.5   -1508605.1    236021.59   -1272583.5    3468074.5 
   26100        6.525    4157.8523      1245144   -1502216.8    235023.98   -1267192.9    3460571.6 
   26200         6.55    4134.4624    1257823.5   -1495583.4    233701.86   -1261881.5    3453068.7 
   26300        6.575    4115.3249    1272944.1   -1488983.8    232620.11   -1256363.7    3445565.8 
   26400          6.6    4101.9989    1288935.9   -1482323.4    231866.85   -1250456.6    3438062.8 
   26500        6.625    4093.3528    1304315.7   -1475461.4    231378.13   -1244083.2    3430559.9 
   26600         6.65     4094.489    1319338.9   -1468744.8    231442.35   -1237302.4      3423057 
   26700        6.675    4116.1594      1333120   -1462873.1    232667.28   -1230205.9      3415554 
   26800          6.7    4150.5789    1342819.5   -1457507.7    234612.85   -1222894.9    3408051.1 
   26900        6.725    4182.2631    1352432.8   -1451887.1    236403.81   -1215483.2    3400548.2 
   27000         6.75    4217.1337    1362282.8   -1446397.4    238374.88   -1208022.5    3393045.2 
   27100        6.775    4269.6295    1373295.9   -1441837.8    241342.23   -1200495.6    3385542.3 
   27200          6.8     4329.481    1382983.7   -1437594.4    244725.35     -1192869    3378039.4 
   27300        6.825    4393.6772    1391421.6   -1433697.5    248354.06   -1185343.5    3370536.4 
   27400         6.85    4448.4707    1403716.8   -1429661.9    251451.28   -1178210.6    3363033.5 
   27500        6.875     4486.195    1421882.2   -1424963.5    253583.67   -1171379.8    3355530.6 
   27600          6.9    4529.1839    1440989.9   -1420499.6    256013.62     -1164486    3348027.7 
   27700        6.925    4593.9723    1457477.9   -1417113.3    259675.81   -1157437.5    3340524.7 
   27800         6.95    4644.8584    1472839.9   -1413033.8    262552.16   -1150481.6    3333021.8 
   27900        6.975    4705.1051    1488247.7   -1409691.9    265957.63   -1143734.3    3325518.9 
   28000            7     4773.544    1499620.7   -1406924.1    269826.16   -1137097.9    3318015.9 
   28100        7.025     4836.182      1516835   -1403997.9    273366.79   -1130631.1      3310513 
   28200         7.05    4887.9376    1538421.8   -1400831.5     276292.3   -1124539.2    3303010.1 
   28300        7.075    4919.7956    1561157.3   -1396826.5    278093.08   -1118733.4    3295507.1 
   28400          7.1    4946.4481    1580263.2   -1392426.6    279599.62   -1112826.9    3288004.2 
   28500        7.125    4974.7612      1600942   -1387866.9    281200.03   -1106666.9    3280501.3 
   28600         7.15    4993.2066    1622582.6     -1382654    282242.66   -1100411.3    3272998.4 
   28700        7.175    5002.8761    1641816.7     -1376886    282789.23   -1094096.8    3265495.4 
   28800          7.2    5016.0594    1657215.6   -1370996.2    283534.42   -1087461.8    3257992.5 
   28900        7.225    5031.8729      1672087     -1364835    284428.29   -1080406.8    3250489.6 
   29000         7.25    5035.9566      1682877   -1357828.9    284659.12   -1073169.8    3242986.6 
   29100        7.275     5032.896    1698378.9   -1350316.7    284486.12   -1065830.6    3235483.7 
   29200          7.3    5027.5212      1712140   -1342170.7    284182.31   -1057988.4    3227980.8 
   29300        7.325    5021.8877    1724516.5     -1333190    283863.87   -1049326.1    3220477.8 
   29400         7.35    5006.3072    1742568.2   -1323146.2    282983.18     -1040163    3212974.9 
   29500        7.375    4985.9062    1763406.4   -1312752.6       281830   -1030922.6      3205472 
   29600          7.4    4965.0582    1786502.3   -1302122.3    280651.56   -1021470.7      3197969 
   29700        7.425    4946.9657    1812294.6   -1291254.8    279628.88   -1011625.9    3190466.1 
   29800         7.45    4923.6234    1840534.8     -1280017    278309.45   -1001707.6    3182963.2 
   29900        7.475    4898.2877    1865399.2   -1268843.5    276877.34   -991966.12    3175460.3 
   30000          7.5    4868.8958    1894395.1   -1257248.2    275215.95   -982032.29    3167957.3 
   30100        7.525    4848.2838    1921697.5   -1245730.3    274050.85   -971679.44    3160454.4 
   30200         7.55    4827.1409    1945997.3   -1234194.8    272855.74    -961339.1    3152951.5 
   30300        7.575    4794.9566    1969811.4   -1222375.2    271036.51   -951338.64    3145448.5 
   30400          7.6    4772.2672      1994893   -1211027.4    269753.99   -941273.43    3137945.6 
   30500        7.625    4761.7206    2020541.5   -1199965.4    269157.84   -930807.54    3130442.7 
   30600         7.65    4757.4532    2041331.6   -1189258.9    268916.62    -920342.3    3122939.7 
   30700        7.675    4752.0766    2065630.3   -1178902.4    268612.71   -910289.66    3115436.8 
   30800          7.7    4757.4986    2086796.8   -1169268.9    268919.19   -900349.66    3107933.9 
   30900        7.725    4764.3019    2104983.6   -1159503.9    269303.75   -890200.14      3100431 
   31000         7.75    4772.9598    2126963.9   -1149966.7    269793.14   -880173.53      3092928 
   31100        7.775    4775.9511    2144078.8   -1140641.8    269962.22   -870679.61    3085425.1 
   31200          7.8    4777.8033    2162344.5   -1131599.8    270066.92   -861532.88    3077922.2 
   31300        7.825    4783.0212    2179876.4   -1122664.7    270361.86   -852302.79    3070419.2 
   31400         7.85      4800.13      2197123   -1114310.5    271328.94   -842981.54    3062916.3 
   31500        7.875    4817.9467    2204102.1   -1106157.8    272336.03    -833821.8    3055413.4 
   31600          7.9    4835.2329    2213471.3   -1098149.6    273313.14   -824836.44    3047910.4 
   31700        7.925    4851.0515    2231604.9   -1090053.6     274207.3   -815846.27    3040407.5 
   31800         7.95    4871.0428    2236728.1   -1082221.9    275337.31   -806884.54    3032904.6 
   31900        7.975    4876.6931    2250801.9   -1073767.4     275656.7   -798110.72    3025401.6 
   32000            8    4875.8057    2267348.8   -1065153.4    275606.53   -789546.85    3017898.7 
   32100        8.025    4854.5213    2283305.5   -1055523.2    274403.43   -781119.79    3010395.8 
   32200         8.05    4823.0598    2297862.6   -1045518.1    272625.06   -772893.03    3002892.9 
   32300        8.075    4786.8414    2310791.5     -1035556     270577.8   -764978.21    2995389.9 
   32400          8.1    4733.2124    2328746.8     -1024930     267546.4    -757383.6      2987887 
   32500        8.125    4666.6757    2351321.4   -1013792.4    263785.39   -750007.02    2980384.1 
   32600         8.15    4602.1028    2364459.8   -1002877.8    260135.39   -742742.41    2972881.1 
   32700        8.175     4515.269      2381083   -990778.65    255227.08   -735551.57    2965378.2 
   32800          8.2     4417.781    2398703.1   -978146.46    249716.54   -728429.92    2957875.3 
   32900        8.225    4312.0329    2424564.3    -965096.3    243739.09    -721357.2    2950372.3 
   33000         8.25    4199.9284    2441913.6   -951708.49    237402.35   -714306.15    2942869.4 
   33100        8.275    4086.0749    2465589.8   -938264.24    230966.74    -707297.5    2935366.5 
   33200          8.3    3964.5482    2493860.2   -924469.27     224097.4   -700371.86    2927863.6 
   33300        8.325    3840.6108    2512235.6   -910701.17     217091.8   -693609.37    2920360.6 
   33400         8.35    3722.7938    2533528.5   -897507.11    210432.15   -687074.96    2912857.7 
   33500        8.375     3599.002    2552342.1   -884216.53    203434.78   -680781.75    2905354.8 
   33600          8.4    3478.9814    2565152.1   -871293.88    196650.58    -674643.3    2897851.8 
   33700        8.425    3369.7529    2583947.7   -858996.67     190476.4   -668520.27    2890348.9 
   33800         8.45    3280.9216    2596355.6   -847733.18    185455.18      -662278      2882846 
   33900        8.475    3195.0987    2606282.6   -836399.08    180604.02   -655795.06      2875343 
   34000          8.5    3125.3677    2620520.3   -825595.67    176662.45   -648933.23    2867840.1 
   34100        8.525    3070.9856    2635361.7   -815236.76    173588.48   -641648.28    2860337.2 
   34200         8.55    3030.1499    2650315.5   -805409.88    171280.23   -634129.65    2852834.2 
   34300        8.575    3001.6082    2669976.8   -796319.49     169666.9   -626652.59    2845331.3 
   34400          8.6    2968.6359    2691842.5   -787152.84    167803.13   -619349.71    2837828.4 
   34500        8.625     2938.828      2715547   -778240.78    166118.23   -612122.55    2830325.5 
   34600         8.65    2922.3595    2736305.3   -769904.01    165187.34   -604716.67    2822822.5 
   34700        8.675    2915.2222    2758046.1   -761580.57     164783.9   -596796.67    2815319.6 
   34800          8.7    2915.8034    2787894.9   -752747.42    164816.75   -587930.67    2807816.7 
   34900        8.725    2933.8871    2811045.7   -743524.07    165838.94   -577685.13    2800313.7 
   35000         8.75    2982.1839      2838263   -734492.55    168568.93   -565923.62    2792810.8 
   35100        8.775     3033.882    2870586.6   -724556.41    171491.19   -553065.23    2785307.9 
   35200          8.8    3083.1039    2900551.4   -713988.61    174273.47   -539715.13    2777804.9 
   35300        8.825    3122.0926    2933500.8   -702724.92    176477.32    -526247.6      2770302 
   35400         8.85    3153.1887    2969136.6   -690955.82    178235.04   -512720.78    2762799.1 
   35500        8.875    3160.3666    3000578.5   -677625.23    178640.77   -498984.45    2755296.2 
   35600          8.9    3170.7206    3029698.1   -663949.75    179226.04   -484723.71    2747793.2 
   35700        8.925      3192.91    3062094.2   -650043.82     180480.3   -469563.52    2740290.3 
   35800         8.95    3209.0266    3090646.9   -634748.78     181391.3   -453357.49    2732787.4 
   35900        8.975     3253.541    3121950.2   -620184.31    183907.48   -436276.82    2725284.4 
   36000            9     3291.259    3147253.6   -604643.61    186039.51    -418604.1    2717781.5 
   36100        9.025    3352.5251    3177028.1   -589934.02     189502.6   -400431.42    2710278.6 
   36200         9.05    3412.7158    3205171.1   -574702.16     192904.9   -381797.27    2702775.6 
   36300        9.075    3471.2114    3229453.3   -559135.22    196211.38   -362923.85    2695272.7 
   36400          9.1    3527.8067    3256586.2   -543349.54    199410.44    -343939.1    2687769.8 
   36500        9.125    3605.3031      3287776   -528443.36    203790.95   -324652.41    2680266.8 
   36600         9.15    3685.6025    3320089.6   -513147.12    208329.91   -304817.21    2672763.9 
   36700        9.175    3794.0549    3341259.9   -498915.75    214460.21   -284455.54      2665261 
   36800          9.2    3918.9906    3372680.8   -485234.72    221522.24   -263712.48    2657758.1 
   36900        9.225    4060.2666    3399286.8   -471933.23    229507.92   -242425.31    2650255.1 
   37000         9.25    4204.0435    3428909.4   -458320.57    237634.95   -220685.61    2642752.2 
   37100        9.275    4364.0617    3460620.7   -445516.87    246680.04   -198836.83    2635249.3 
   37200          9.3    4518.6187      3487361   -432723.29    255416.42   -177306.87    2627746.3 
   37300        9.325    4675.8948    3523770.9   -420244.93    264306.51   -155938.42    2620243.4 
   37400         9.35    4828.8141    3550546.4   -407742.29    272950.32   -134791.97    2612740.5 
   37500        9.375    4959.5362    3580977.5    -394158.8    280339.43   -113819.37    2605237.5 
   37600          9.4    5106.0253    3605108.4   -381563.55    288619.78   -92943.775    2597734.6 
   37700        9.425    5221.8945    3632857.7   -367211.23    295169.32   -72041.906    2590231.7 
   37800         9.45    5364.3791    3667848.2   -354438.99    303223.31   -51215.677    2582728.7 
   37900        9.475    5471.3851      3698373   -339838.32    309271.86   -30566.461    2575225.8 
   38000          9.5     5570.574    3730782.1   -324747.22    314878.55   -9868.6766    2567722.9 
   38100        9.525    5684.6199    3764059.5   -310596.23    321325.03    10728.795      2560220 
   38200         9.55    5770.4199    3792690.8   -294905.26     326174.9     31269.64      2552717 
   38300        9.575    5851.3659    3829790.4   -278859.31     330750.4    51891.092    2545214.1 
   38400          9.6    5949.8292    3864566.5   -263775.08    336316.07     72540.99    2537711.2 
   38500        9.625    6013.5709    3900684.5   -246664.27    339919.09    93254.823    2530208.2 
   38600         9.65    6101.3298    3940235.1    -230728.7    344879.69       114151    2522705.3 
   38700        9.675    6177.9778    3984649.8   -214356.94    349212.25    134855.31    2515202.4 
   38800          9.7    6273.3352    4014156.8   -199192.82    354602.35    155409.53    2507699.4 
   38900        9.725    6335.8169      4054443   -182409.78    358134.16    175724.38    2500196.5 
   39000         9.75     6416.825    4095544.5   -166926.61    362713.17    195786.55    2492693.6 
   39100        9.775    6501.1298    4130432.7   -151646.83    367478.52    215831.69    2485190.7 
   39200          9.8    6592.3842    4176735.5   -136838.39    372636.71    235798.31    2477687.7 
   39300        9.825    6664.2321    4223392.4   -121084.84    376697.93    255613.09    2470184.8 
   39400         9.85    6771.7087    4260425.4   -107141.98    382773.08    275631.11    2462681.9 
   39500        9.875    6874.0039    4306452.7    -92586.21    388555.36    295969.15    2455178.9 
   39600          9.9    6988.2357    4353497.2   -78216.145    395012.34     316796.2      2447676 
   39700        9.925    7113.5136    4400336.4   -64516.283    402093.72    337577.43    2440173.1 
   39800         9.95    7229.5404    4457542.1   -49654.925    408652.17    358997.25    2432670.1 
   39900        9.975    7369.7951    4511527.8   -35532.115    416580.11       381048    2425167.2 
   40000           10    7499.9042    4574108.4   -20068.248    423934.58    403866.33    2417664.3 
   40100       10.025    7631.2794    4638974.2   -3890.8161     431360.6    427469.79    2410161.3 
   40200        10.05    7794.1852    4703133.9    11201.818    440568.91    451770.73    2402658.4 
   40300       10.075    7910.2291    4769775.7    29596.963    447128.33    476725.29    2395155.5 
   40400         10.1    8030.9175      4836601    47938.429    453950.28    501888.71    2387652.6 
   40500       10.125    8142.1784    4907227.1    67103.667    460239.34    527343.01    2380149.6 
   40600        10.15     8256.299    4973575.1    86430.318    466690.04    553120.36    2372646.7 
   40700       10.175    8360.1547    5041846.1    106857.01    472560.52    579417.53    2365143.8 
   40800         10.2    8422.0104    5099566.8    129234.17    476056.93     605291.1    2357640.8 
   40900       10.225    8508.7824    5170368.8    150053.54    480961.75     631015.3    2350137.9 
   41000        10.25    8561.8503    5235331.4    172794.48    483961.43    656755.91      2342635 
   41100       10.275    8653.6492    5295641.1    193744.65    489150.39    682895.04      2335132 
   41200         10.3    8722.1304    5360970.5     215561.9    493021.32    708583.22    2327629.1 
   41300       10.325    8785.2379    5423156.8    237666.09    496588.49    734254.58    2320126.2 
   41400        10.35    8873.6383    5499222.2    258458.19    501585.35    760043.54    2312623.3 
   41500       10.375    8910.6572    5555959.9    282124.27    503677.86    785802.13    2305120.3 
   41600         10.4    8998.0485      5626440    303379.52    508617.68    811997.19    2297617.4 
   41700       10.425    9048.1379    5690354.8    326267.61       511449    837716.61    2290114.5 
   41800        10.45    9097.8864    5763849.7     349141.2    514261.05    863402.26    2282611.5 
   41900       10.475    9115.2876      5828569    373530.69    515244.66    888775.35    2275108.6 
   42000         10.5    9146.5995    5899541.7     396752.6    517014.57    913767.17    2267605.7 
   42100       10.525    9138.5542      5962126    422288.34    516559.81    938848.15    2260102.7 
   42200        10.55    9098.2477    6029554.4    448966.55    514281.47    963248.02    2252599.8 
   42300       10.575     9069.834    6105891.3    474802.57    512675.38    987477.94    2245096.9 
   42400         10.6    9007.1732      6175227    502398.71    509133.46    1011532.2    2237593.9 
   42500       10.625    8938.0343    6241816.4    529671.18    505225.36    1034896.5      2230091 
   42600        10.65    8863.2349    6314600.2     557120.3     500997.3    1058117.6    2222588.1 
   42700       10.675    8772.2464    6389867.1    585676.54    495854.14    1081530.7    2215085.2 
   42800         10.7    8695.6148      6464242    612775.68    491522.52    1104298.2    2207582.2 
   42900       10.725    8593.6659    6547542.3    641356.67    485759.82    1127116.5    2200079.3 
   43000        10.75    8513.1288    6626497.7    668948.04    481207.43    1150155.5    2192576.4 
   43100       10.775    8469.6435    6705439.7     695040.1    478749.41    1173789.5    2185073.4 
   43200         10.8    8393.3799    6785480.2    722864.78    474438.59    1197303.4    2177570.5 
   43300       10.825    8350.4885    6873984.2    749355.75    472014.14    1221369.9    2170067.6 
   43400        10.85      8328.93    6965397.7    775968.45    470795.53      1246764    2162564.6 
   43500       10.875    8308.9599    7050671.3    803200.24    469666.72      1272867    2155061.7 
   43600         10.9    8313.6337    7141345.9    830227.74    469930.91    1300158.6    2147558.8 
   43700       10.925    8317.7954    7236092.3    859305.51    470166.15    1329471.7    2140055.9 
   43800        10.95    8329.8122    7339491.2    889992.97     470845.4    1360838.4    2132552.9 
   43900       10.975    8425.4841    7431473.1    918640.11    476253.28    1394893.4      2125050 
   44000           11    8463.8672    7540441.5    952074.01     478422.9    1430496.9    2117547.1 
   44100       11.025    8537.0981    7634012.2    985225.69    482562.31      1467788    2110044.1 
   44200        11.05    8634.2689    7745367.9    1018586.5    488054.92    1506641.5    2102541.2 
   44300       11.075    8741.4588      7835035    1052217.2    494113.86      1546331    2095038.3 
   44400         11.1    8818.5484    7945204.4    1088817.8    498471.38    1587289.1    2087535.3 
   44500       11.125    8934.9275    8052490.2    1123354.7    505049.75    1628404.4    2080032.4 
   44600        11.15    9018.3427    8166371.5    1160582.6    509764.82    1670347.4    2072529.5 
   44700       11.175    9154.9613    8255733.4    1195952.3    517487.23    1713439.6    2065026.5 
   44800         11.2    9291.6527    8365751.7    1231993.1    525213.76    1757206.8    2057523.6 
   44900       11.225    9403.8607    8475384.7    1269907.6    531556.35      1801464    2050020.7 
   45000        11.25      9561.89    8590802.1    1306672.9    540489.01    1847161.9    2042517.8 
   45100       11.275    9683.2787      8699488    1346040.3    547350.55    1893390.9    2035014.8 
   45200         11.3    9811.1204    8813391.2    1385429.6    554576.84    1940006.5    2027511.9 
   45300       11.325    9935.9018    8912199.5    1425683.4    561630.15    1987313.6      2020009 
   45400        11.35    10034.676    9044707.2    1467629.8    567213.42    2034843.2      2012506 
   45500       11.375    10134.481    9149698.6    1509675.3    572854.93    2082530.2    2005003.1 
   45600         11.4    10204.105    9280206.9      1552718    576790.44    2129508.4    1997500.2 
   45700       11.425    10296.307    9412581.5    1595222.7    582002.15    2177224.9    1989997.2 
   45800        11.45    10352.844    9536821.6    1639451.6    585197.95    2224649.5    1982494.3 
   45900       11.475    10440.841    9670863.4    1682668.2       590172    2272840.2    1974991.4 
   46000         11.5    10524.573    9812320.6    1726218.9    594904.97    2321123.9    1967488.5 
   46100       11.525    10671.587      9951777    1767119.8    603214.99    2370334.8    1959985.5 
   46200        11.55    10830.788     10103933    1808211.5    612213.89    2420425.3    1952482.6 
   46300       11.575    10984.885     10271212    1850213.3     620924.3    2471137.6    1944979.7 
   46400         11.6    11152.769     10428355    1891969.1    630413.96      2522383    1937476.7 
   46500       11.625    11321.363     10605593    1934840.5    639943.79    2574784.3    1929973.8 
   46600        11.65    11457.537     10795956    1980230.8    647641.11    2627871.9    1922470.9 
   46700       11.675    11629.283     10959418    2025283.1    657349.07    2682632.1    1914967.9 
   46800         11.7    11774.668     11141848    2072157.6    665567.01    2737724.6      1907465 
   46900       11.725    11901.602     11323857    2121366.6    672742.02    2794108.6    1899962.1 
   47000        11.75    11984.098     11495071    2173350.6    677405.14    2850755.7    1892459.1 
   47100       11.775    12124.114     11649558    2222820.7    685319.57    2908140.3    1884956.2 
   47200         11.8    12221.508     11830200    2274864.5    690824.83    2965689.4    1877453.3 
   47300       11.825    12316.195     11994192    2327270.6    696177.04    3023447.7    1869950.4 
   47400        11.85    12387.642     12162856    2380201.6    700215.56    3080417.1    1862447.4 
   47500       11.875    12452.229     12339936      2433328    703866.37    3137194.4    1854944.5 
   47600         11.9    12482.177     12504931    2488432.6    705559.23    3193991.8    1847441.6 
   47700       11.925    12510.647     12681639    2543060.2    707168.46    3250228.7    1839938.6 
   47800        11.95    12482.832     12834366    2600561.4    705596.23    3306157.6    1832435.7 
   47900       11.975    12417.423     13014334    2659359.5    701898.97    3361258.4    1824932.8 
   48000           12    12333.061     13173971      2718614    697130.38    3415744.3    1817429.8 
   48100       12.025    12238.035     13341210    2778250.3       691759    3470009.3    1809926.9 
