LAMMPS (24 Mar 2022)
OMP_NUM_THREADS environment is not set. Defaulting to 1 thread. (src/comm.cpp:98)
  using 1 OpenMP thread(s) per MPI task
package gpu 0
################################################################################
# LAMMPS input file                                                            #
#                                                                              #
# Attempted recreation of approximate setup of Zhao, et al.                    #
# Using nial09 eam, impactor at uP = 3 km/s                                    #
#                                                                              #
# richard terrett, 2018                                                        #
#                                                                              #
################################################################################

# variables

variable al_fcc_a equal 4.064
variable ni_fcc_a equal 3.528
variable v_up     equal 30
variable    box_x equal 514.00
variable   box_yz equal 100
variable  half_yz equal ${box_yz}/2
variable  half_yz equal 100/2
variable void_radius equal 20

# simulation construction

units      metal
dimension  3
boundary   p p p
atom_style atomic
timestep   0.001

# lattice construction

region       simulation_box block 0.00   ${box_x} 0.00 ${box_yz} 0.00 ${box_yz}
region       simulation_box block 0.00   514 0.00 ${box_yz} 0.00 ${box_yz}
region       simulation_box block 0.00   514 0.00 100 0.00 ${box_yz}
region       simulation_box block 0.00   514 0.00 100 0.00 100
create_box 2 simulation_box
Created orthogonal box = (0 0 0) to (514 100 100)
  6 by 1 by 1 MPI processor grid
region       al_a    block          0.00  14.00 0.00 ${box_yz} 0.00 ${box_yz}
region       al_a    block          0.00  14.00 0.00 100 0.00 ${box_yz}
region       al_a    block          0.00  14.00 0.00 100 0.00 100
region       ni_a    block         14.00  70.00 0.00 ${box_yz} 0.00 ${box_yz}
region       ni_a    block         14.00  70.00 0.00 100 0.00 ${box_yz}
region       ni_a    block         14.00  70.00 0.00 100 0.00 100
region       al_b    block         70.00  98.00 0.00 ${box_yz} 0.00 ${box_yz}
region       al_b    block         70.00  98.00 0.00 100 0.00 ${box_yz}
region       al_b    block         70.00  98.00 0.00 100 0.00 100
region       ni_b    block         98.00 154.00 0.00 ${box_yz} 0.00 ${box_yz}
region       ni_b    block         98.00 154.00 0.00 100 0.00 ${box_yz}
region       ni_b    block         98.00 154.00 0.00 100 0.00 100
region       al_c    block        154.00 182.00 0.00 ${box_yz} 0.00 ${box_yz}
region       al_c    block        154.00 182.00 0.00 100 0.00 ${box_yz}
region       al_c    block        154.00 182.00 0.00 100 0.00 100
region       ni_c    block        182.00 238.00 0.00 ${box_yz} 0.00 ${box_yz}
region       ni_c    block        182.00 238.00 0.00 100 0.00 ${box_yz}
region       ni_c    block        182.00 238.00 0.00 100 0.00 100
region       al_d    block        238.00 252.00 0.00 ${box_yz} 0.00 ${box_yz}
region       al_d    block        238.00 252.00 0.00 100 0.00 ${box_yz}
region       al_d    block        238.00 252.00 0.00 100 0.00 100
region       void    block        252.00 262.00 0.00 ${box_yz} 0.00 ${box_yz}
region       void    block        252.00 262.00 0.00 100 0.00 ${box_yz}
region       void    block        252.00 262.00 0.00 100 0.00 100
region       al_w    block        262.00 276.00 0.00 ${box_yz} 0.00 ${box_yz}
region       al_w    block        262.00 276.00 0.00 100 0.00 ${box_yz}
region       al_w    block        262.00 276.00 0.00 100 0.00 100
region       ni_w    block        276.00 332.00 0.00 ${box_yz} 0.00 ${box_yz}
region       ni_w    block        276.00 332.00 0.00 100 0.00 ${box_yz}
region       ni_w    block        276.00 332.00 0.00 100 0.00 100
region       al_x    block        332.00 360.00 0.00 ${box_yz} 0.00 ${box_yz}
region       al_x    block        332.00 360.00 0.00 100 0.00 ${box_yz}
region       al_x    block        332.00 360.00 0.00 100 0.00 100
region       ni_x    block        360.00 416.00 0.00 ${box_yz} 0.00 ${box_yz}
region       ni_x    block        360.00 416.00 0.00 100 0.00 ${box_yz}
region       ni_x    block        360.00 416.00 0.00 100 0.00 100
region       al_y    block        416.00 444.00 0.00 ${box_yz} 0.00 ${box_yz}
region       al_y    block        416.00 444.00 0.00 100 0.00 ${box_yz}
region       al_y    block        416.00 444.00 0.00 100 0.00 100
region       ni_y    block        444.00 500.00 0.00 ${box_yz} 0.00 ${box_yz}
region       ni_y    block        444.00 500.00 0.00 100 0.00 ${box_yz}
region       ni_y    block        444.00 500.00 0.00 100 0.00 100
region       al_z    block        500.00 514.00 0.00 ${box_yz} 0.00 ${box_yz}
region       al_z    block        500.00 514.00 0.00 100 0.00 ${box_yz}
region       al_z    block        500.00 514.00 0.00 100 0.00 100
region    chomp_b   sphere          84.0       ${half_yz}      ${half_yz}  ${void_radius}
region    chomp_b   sphere          84.0       50      ${half_yz}  ${void_radius}
region    chomp_b   sphere          84.0       50      50  ${void_radius}
region    chomp_b   sphere          84.0       50      50  20
region    chomp_c   sphere         168.0       ${half_yz}      ${half_yz}  ${void_radius}
region    chomp_c   sphere         168.0       50      ${half_yz}  ${void_radius}
region    chomp_c   sphere         168.0       50      50  ${void_radius}
region    chomp_c   sphere         168.0       50      50  20
region    chomp_x   sphere         346.0       ${half_yz}      ${half_yz}  ${void_radius}
region    chomp_x   sphere         346.0       50      ${half_yz}  ${void_radius}
region    chomp_x   sphere         346.0       50      50  ${void_radius}
region    chomp_x   sphere         346.0       50      50  20
region    chomp_y   sphere         430.0       ${half_yz}      ${half_yz}  ${void_radius}
region    chomp_y   sphere         430.0       50      ${half_yz}  ${void_radius}
region    chomp_y   sphere         430.0       50      50  ${void_radius}
region    chomp_y   sphere         430.0       50      50  20
region       left    block           0.0 257.00 0.0 200 0.0 200
region      right    block         257.0 514.00 0.0 200 0.0 200

lattice      fcc ${ni_fcc_a} orient x 1 1 1 orient y 1 -1 0 orient z 1 1 -2
lattice      fcc 3.528 orient x 1 1 1 orient y 1 -1 0 orient z 1 1 -2
Lattice spacing in x,y,z = 6.1106752 4.9893454 5.7611999
create_atoms 1 region ni_a
Created 52400 atoms
  using lattice units in orthogonal box = (0 0 0) to (514 100 100)
  create_atoms CPU = 0.014 seconds
create_atoms 1 region ni_b
Created 50582 atoms
  using lattice units in orthogonal box = (0 0 0) to (514 100 100)
  create_atoms CPU = 0.014 seconds
create_atoms 1 region ni_c
Created 50623 atoms
  using lattice units in orthogonal box = (0 0 0) to (514 100 100)
  create_atoms CPU = 0.014 seconds
create_atoms 1 region ni_w
Created 50572 atoms
  using lattice units in orthogonal box = (0 0 0) to (514 100 100)
  create_atoms CPU = 0.020 seconds
create_atoms 1 region ni_x
Created 52486 atoms
  using lattice units in orthogonal box = (0 0 0) to (514 100 100)
  create_atoms CPU = 0.017 seconds
create_atoms 1 region ni_y
Created 52375 atoms
  using lattice units in orthogonal box = (0 0 0) to (514 100 100)
  create_atoms CPU = 0.014 seconds
lattice      fcc ${al_fcc_a} orient x 1 1 1 orient y 1 -1 0 orient z 1 1 -2
lattice      fcc 4.064 orient x 1 1 1 orient y 1 -1 0 orient z 1 1 -2
Lattice spacing in x,y,z = 7.0390545 5.7473639 6.6364842
create_atoms 2 region al_a
Created 8102 atoms
  using lattice units in orthogonal box = (0 0 0) to (514 100 100)
  create_atoms CPU = 0.006 seconds
create_atoms 2 region al_b
Created 16926 atoms
  using lattice units in orthogonal box = (0 0 0) to (514 100 100)
  create_atoms CPU = 0.008 seconds
create_atoms 2 region al_c
Created 16910 atoms
  using lattice units in orthogonal box = (0 0 0) to (514 100 100)
  create_atoms CPU = 0.008 seconds
create_atoms 2 region al_d
Created 8463 atoms
  using lattice units in orthogonal box = (0 0 0) to (514 100 100)
  create_atoms CPU = 0.008 seconds
create_atoms 2 region al_w
Created 8416 atoms
  using lattice units in orthogonal box = (0 0 0) to (514 100 100)
  create_atoms CPU = 0.007 seconds
create_atoms 2 region al_x
Created 16912 atoms
  using lattice units in orthogonal box = (0 0 0) to (514 100 100)
  create_atoms CPU = 0.009 seconds
create_atoms 2 region al_y
Created 16901 atoms
  using lattice units in orthogonal box = (0 0 0) to (514 100 100)
  create_atoms CPU = 0.009 seconds
create_atoms 2 region al_z
Created 8461 atoms
  using lattice units in orthogonal box = (0 0 0) to (514 100 100)
  create_atoms CPU = 0.007 seconds

# pair potential

pair_style eam/alloy
pair_coeff * * Mishin-Ni-Al-2009.eam.alloy Ni Al

# reporting

thermo 100

dump 1 all atom 1000  thermalise.lammpstrj

# dynamics initialisation

delete_atoms region chomp_b compress no
Deleted 2102 atoms, new total = 408027
delete_atoms region chomp_c compress no
Deleted 2106 atoms, new total = 405921
delete_atoms region chomp_x compress no
Deleted 2100 atoms, new total = 403821
delete_atoms region chomp_y compress no
Deleted 2218 atoms, new total = 401603
delete_atoms overlap 2 all all
System init for delete_atoms ...
Neighbor list info ...
  update every 1 steps, delay 10 steps, check yes
  max neighbors/atom: 2000, page size: 100000
  master list distance cutoff = 8.28721
  ghost atom cutoff = 8.28721
  binsize = 4.143605, bins = 125 25 25
  1 neighbor lists, perpetual/occasional/extra = 0 1 0
  (1) command delete_atoms, occasional
      attributes: full, newton off
      pair build: full/bin/atomonly
      stencil: full/bin/3d
      bin: standard
Deleted 11801 atoms, new total = 389802
velocity all create 300 1 mom yes rot no

# simulation


# Thermalisation
fix   1 all npt temp 300 300 100 iso 0.0 0.0 100 drag 0.0
run   30000

CITE-CITE-CITE-CITE-CITE-CITE-CITE-CITE-CITE-CITE-CITE-CITE-CITE

Your simulation uses code contributions which should be cited:

- GPU package (short-range, long-range and three-body potentials):

@Article{Brown11,
 author = {W. M. Brown, P. Wang, S. J. Plimpton, A. N. Tharrington},
 title = {Implementing Molecular Dynamics on Hybrid High Performance Computers - Short Range Forces},
 journal = {Comp.~Phys.~Comm.},
 year =    2011,
 volume =  182,
 pages =   {898--911}
}

@Article{Brown12,
 author = {W. M. Brown, A. Kohlmeyer, S. J. Plimpton, A. N. Tharrington},
 title = {Implementing Molecular Dynamics on Hybrid High Performance Computers - Particle-Particle Particle-Mesh},
 journal = {Comp.~Phys.~Comm.},
 year =    2012,
 volume =  183,
 pages =   {449--459}
}

@Article{Brown13,
 author = {W. M. Brown, Y. Masako},
 title = {Implementing Molecular Dynamics on Hybrid High Performance Computers – Three-Body Potentials},
 journal = {Comp.~Phys.~Comm.},
 year =    2013,
 volume =  184,
 pages =   {2785--2793}
}

@Article{Trung15,
 author = {T. D. Nguyen, S. J. Plimpton},
 title = {Accelerating dissipative particle dynamics simulations for soft matter systems},
 journal = {Comput.~Mater.~Sci.},
 year =    2015,
 volume =  100,
 pages =   {173--180}
}

@Article{Trung17,
 author = {T. D. Nguyen},
 title = {GPU-accelerated Tersoff potentials for massively parallel Molecular Dynamics simulations},
 journal = {Comp.~Phys.~Comm.},
 year =    2017,
 volume =  212,
 pages =   {113--122}
}

@Article{Nikolskiy19,
 author = {V. Nikolskiy, V. Stegailov},
 title = {GPU acceleration of four-site water models in LAMMPS},
 journal = {Proceeding of the International Conference on Parallel Computing (ParCo 2019), Prague, Czech Republic},
 year =    2019
}

CITE-CITE-CITE-CITE-CITE-CITE-CITE-CITE-CITE-CITE-CITE-CITE-CITE

Neighbor list info ...
  update every 1 steps, delay 10 steps, check yes
  max neighbors/atom: 2000, page size: 100000
  master list distance cutoff = 8.28721
  ghost atom cutoff = 8.28721
  binsize = 4.143605, bins = 125 25 25
  0 neighbor lists, perpetual/occasional/extra = 0 0 0
Per MPI rank memory allocation (min/avg/max) = 24.18 | 26.38 | 27.01 Mbytes
   Step          Temp          E_pair         E_mol          TotEng         Press          Volume    
         0   300           -1620793.1      0             -1605677.4     -15224.269      5140000      
       100   297.97999     -1620690.6      0             -1605676.6     -22320.653      5139957.1    
       200   287.09378     -1620143.7      0             -1605678.3     -22396.449      5139808.2    
       300   294.44134     -1620518        0             -1605682.3     -20247.917      5139549.3    
       400   303.23864     -1620965.9      0             -1605687       -19579.024      5139190.2    
       500   300.88372     -1620852.8      0             -1605692.5     -20075.354      5138735.7    
       600   303.48125     -1620990.7      0             -1605699.5     -21386.469      5138183.9    
       700   301.62049     -1620905.7      0             -1605708.3     -22109.849      5137530.3    
       800   296.33209     -1620649.6      0             -1605718.6     -22091.451      5136773.4    
       900   296.39266     -1620664.4      0             -1605730.4     -21725.296      5135915.6    
      1000   295.05843     -1620609.6      0             -1605742.9     -20350.067      5134963.2    
      1100   298.07351     -1620773.8      0             -1605755.1     -17837.884      5133928.8    
      1200   303.79035     -1621074.1      0             -1605767.4     -17891.595      5132829.2    
      1300   302.02387     -1620997.8      0             -1605780.1     -17922.959      5131674.6    
      1400   301.85727     -1621003.3      0             -1605794       -18914.765      5130472.5    
      1500   302.57575     -1621054.1      0             -1605808.6     -18640.644      5129229.3    
      1600   304.97918     -1621189.6      0             -1605823       -17455.684      5127957.4    
      1700   301.79979     -1621043        0             -1605836.6     -16499.151      5126672.4    
      1800   303.20905     -1621126.7      0             -1605849.3     -15446.406      5125389.5    
      1900   302.42022     -1621099.1      0             -1605861.5     -15509.531      5124121.7    
      2000   303.15627     -1621148.7      0             -1605873.9     -16465.382      5122875.3    
      2100   306.38792     -1621324.4      0             -1605886.8     -16985.372      5121651.6    
      2200   304.53942     -1621243.8      0             -1605899.4     -16708.622      5120452.1    
      2300   307.90335     -1621425.4      0             -1605911.5     -16286.245      5119279.8    
      2400   309.58094     -1621521.3      0             -1605922.8     -15238.388      5118137.2    
      2500   309.49431     -1621526.9      0             -1605932.8     -13990.645      5117027.8    
      2600   309.61294     -1621542.2      0             -1605942.1     -13704.908      5115953.6    
      2700   309.1604      -1621528.2      0             -1605950.9     -13336.302      5114912.1    
      2800   311.40903     -1621649.8      0             -1605959.2     -12888.001      5113900      
      2900   312.09506     -1621692.1      0             -1605966.9     -12057.303      5112914.4    
      3000   309.88544     -1621587.5      0             -1605973.7     -10509.877      5111954.2    
      3100   313.31705     -1621766.2      0             -1605979.5     -9462.6174      5111020.8    
      3200   313.27162     -1621769        0             -1605984.5     -8338.5933      5110114.3    
      3300   314.07244     -1621813.8      0             -1605989       -7835.9536      5109234.6    
      3400   312.93651     -1621760.6      0             -1605993.1     -7441.34        5108379.6    
      3500   313.94504     -1621815.3      0             -1605996.9     -7280.3873      5107546.9    
      3600   316.29588     -1621937.4      0             -1606000.6     -7191.6036      5106733.8    
      3700   315.2236      -1621887        0             -1606004.3     -7584.5755      5105937.3    
      3800   317.14834     -1621987.8      0             -1606008       -7679.0276      5105153.4    
      3900   316.84883     -1621976.5      0             -1606011.8     -8060.8069      5104379.4    
      4000   317.01367     -1621988.7      0             -1606015.8     -8223.4354      5103612.2    
      4100   317.55334     -1622019.8      0             -1606019.7     -7918.4648      5102849.9    
      4200   316.20051     -1621955.3      0             -1606023.3     -7307.6348      5102093.1    
      4300   317.47852     -1622022.9      0             -1606026.5     -6483.101       5101344      
      4400   317.47801     -1622025.7      0             -1606029.3     -5355.8447      5100606      
      4500   319.9019      -1622150        0             -1606031.5     -4213.9464      5099883.6    
      4600   319.71822     -1622142.3      0             -1606033.1     -2620.8937      5099181.4    
      4700   320.39564     -1622177.2      0             -1606033.8     -723.62249      5098505.7    
      4800   320.96221     -1622205.8      0             -1606033.9      716.54085      5097863.6    
      4900   319.53051     -1622133.2      0             -1606033.4      1903.0427      5097260.1    
      5000   320.80512     -1622196.7      0             -1606032.7      2364.7486      5096698.3    
      5100   319.4842      -1622129.3      0             -1606031.9      2695.8748      5096178.2    
      5200   319.42519     -1622125.6      0             -1606031.1      2553.8955      5095698.5    
      5300   320.31912     -1622170        0             -1606030.5      2712.4229      5095256.8    
      5400   320.37012     -1622171.9      0             -1606029.8      2798.1569      5094851      
      5500   319.70476     -1622137.8      0             -1606029.2      2505.3479      5094479.4    
      5600   319.31681     -1622117.8      0             -1606028.8      1830.9492      5094138.5    
      5700   318.91385     -1622097.3      0             -1606028.6      1371.9736      5093823.6    
      5800   318.24144     -1622063.2      0             -1606028.4      1382.6153      5093531.2    
      5900   317.97458     -1622049.5      0             -1606028.2      2321.7735      5093260.1    
      6000   318.75022     -1622088.2      0             -1606027.8      3663.9335      5093013.3    
      6100   317.80117     -1622039.9      0             -1606027.2      5046.1778      5092795.6    
      6200   320.02654     -1622151.5      0             -1606026.7      6304.0804      5092611.9    
      6300   318.72642     -1622085.4      0             -1606026.1      7283.7114      5092466.4    
      6400   318.06937     -1622051.9      0             -1606025.7      7930.1006      5092361.7    
      6500   317.88828     -1622042.5      0             -1606025.4      8682.1922      5092299.1    
      6600   316.72573     -1621983.9      0             -1606025.4      9426.8203      5092280.3    
      6700   318.0908      -1622052.9      0             -1606025.6      9949.4876      5092306.6    
      6800   318.27398     -1622062.6      0             -1606026.2      9927.9673      5092378.5    
      6900   318.00497     -1622049.9      0             -1606027        9724.2464      5092494.2    
      7000   317.29206     -1622015        0             -1606028        9540.7318      5092650.9    
      7100   317.02502     -1622002.7      0             -1606029.2      9045.283       5092846.1    
      7200   316.06757     -1621955.9      0             -1606030.6      8678.7478      5093076.2    
      7300   314.90262     -1621898.6      0             -1606032        8392.7253      5093337.9    
      7400   315.5303      -1621931.9      0             -1606033.6      8241.1247      5093628.9    
      7500   315.30185     -1621922.1      0             -1606035.4      8392.2041      5093947.3    
      7600   315.9686      -1621957.6      0             -1606037.3      8778.0282      5094292.6    
      7700   314.67141     -1621894.5      0             -1606039.5      9670.5619      5094665.8    
      7800   314.57527     -1621892.3      0             -1606042.2      10773.595      5095069.6    
      7900   313.62364     -1621847.5      0             -1606045.3      11407.594      5095507.7    
      8000   313.51588     -1621845.6      0             -1606048.8      11515.14       5095981.5    
      8100   313.27178     -1621837        0             -1606052.6      11434.301      5096489.8    
      8200   314.14653     -1621885        0             -1606056.5      11358.265      5097030.7    
      8300   313.42192     -1621852.6      0             -1606060.6      11110.008      5097601.6    
      8400   313.02948     -1621837.1      0             -1606064.8      10909.236      5098199.7    
      8500   313.00259     -1621840        0             -1606069.1      10615.772      5098821.9    
      8600   312.76791     -1621832.5      0             -1606073.4      10243.996      5099464.9    
      8700   312.71255     -1621833.9      0             -1606077.6      9722.2301      5100125      
      8800   312.16894     -1621810.6      0             -1606081.7      9511.0506      5100798.3    
      8900   312.11209     -1621811.9      0             -1606085.9      9537.2869      5101481.8    
      9000   312.4442      -1621832.9      0             -1606090.2      9929.4466      5102174.5    
      9100   313.35949     -1621883.7      0             -1606094.8      10402.304      5102876.3    
      9200   313.18731     -1621879.8      0             -1606099.6      10766.333      5103587.9    
      9300   312.99762     -1621875.2      0             -1606104.6      10976.828      5104309.3    
      9400   312.71489     -1621866.1      0             -1606109.8      11060.864      5105039.9    
      9500   312.50938     -1621860.9      0             -1606114.9      10825.686      5105778.4    
      9600   312.70313     -1621875.7      0             -1606119.9      10265.734      5106522      
      9700   312.67293     -1621879        0             -1606124.7      9657.5385      5107266.9    
      9800   313.42784     -1621921.4      0             -1606129.1      8941.7507      5108009.1    
      9900   313.74544     -1621941.5      0             -1606133.2      8364.7526      5108744.6    
     10000   313.40126     -1621927.9      0             -1606137        7859.702       5109470.3    
     10100   312.95325     -1621908.9      0             -1606140.5      7444.8554      5110184      
     10200   312.31121     -1621879.8      0             -1606143.8      7040.1245      5110883.9    
     10300   313.26959     -1621931.1      0             -1606146.8      6481.2151      5111568.4    
     10400   314.55107     -1621998.5      0             -1606149.6      6094.012       5112235.9    
     10500   314.36732     -1621991.8      0             -1606152.2      6124.0445      5112885.8    
     10600   314.40382     -1621996.2      0             -1606154.8      6364.5266      5113519.3    
     10700   314.55268     -1622006.4      0             -1606157.4      6600.6932      5114138.5    
     10800   313.88436     -1621975.3      0             -1606160        6600.9894      5114745.6    
     10900   314.30501     -1621999.1      0             -1606162.6      6359.041       5115341.5    
     11000   314.84742     -1622028.8      0             -1606165        5912.5366      5115926      
     11100   315.42086     -1622059.8      0             -1606167.1      5352.964       5116498.2    
     11200   316.00396     -1622091.1      0             -1606169        4882.357       5117056.7    
     11300   316.62762     -1622124.3      0             -1606170.8      4371.7226      5117600.2    
     11400   316.12909     -1622100.6      0             -1606172.2      3620.1062      5118127.7    
     11500   316.37858     -1622114.3      0             -1606173.3      2439.7799      5118636.9    
     11600   316.45136     -1622118.7      0             -1606174        1292.6691      5119124      
     11700   316.28348     -1622110.6      0             -1606174.4      467.63191      5119585.5    
     11800   317.12817     -1622153.4      0             -1606174.7      91.543182      5120019.6    
     11900   316.96966     -1622145.5      0             -1606174.8     -100.0456       5120426.6    
     12000   316.79404     -1622136.8      0             -1606174.9     -154.43714      5120807.7    
     12100   317.97312     -1622196.3      0             -1606175       -184.72046      5121164.4    
     12200   317.41349     -1622168.2      0             -1606175.1     -316.08887      5121498.4    
     12300   317.14913     -1622155        0             -1606175.2     -634.29526      5121810.8    
     12400   316.49348     -1622121.9      0             -1606175.2     -941.61492      5122101.7    
     12500   317.71557     -1622183.5      0             -1606175.2     -1225.6068      5122371.2    
     12600   317.92638     -1622194.1      0             -1606175.1     -1605.7837      5122619.5    
     12700   317.18114     -1622156.4      0             -1606175       -2165.0882      5122846.1    
     12800   318.05726     -1622200.4      0             -1606174.9     -2896.3621      5123049.8    
     12900   317.5788      -1622176.1      0             -1606174.7     -3662.7299      5123228.7    
     13000   317.59932     -1622176.9      0             -1606174.5     -4302.8129      5123380.7    
     13100   316.89086     -1622141.1      0             -1606174.3     -4638.123       5123504.3    
     13200   316.64525     -1622128.6      0             -1606174.2     -4797.5367      5123599.7    
     13300   316.79363     -1622136        0             -1606174.1     -4952.4112      5123667.4    
     13400   316.97024     -1622145        0             -1606174.2     -5100.8186      5123708.1    
     13500   317.23504     -1622158.4      0             -1606174.3     -5202.4662      5123722.6    
     13600   317.19458     -1622156.6      0             -1606174.5     -5400.3546      5123711.5    
     13700   317.10692     -1622152.5      0             -1606174.8     -5657.0733      5123675.2    
     13800   316.34491     -1622114.5      0             -1606175.2     -5863.8229      5123613.7    
     13900   316.3237      -1622113.9      0             -1606175.7     -6075.3774      5123527.1    
     14000   315.92195     -1622094.3      0             -1606176.4     -6368.2951      5123415.4    
     14100   315.70836     -1622084.3      0             -1606177.1     -6755.3866      5123278.4    
     14200   315.64457     -1622082        0             -1606178       -7405.7737      5123115.3    
     14300   315.21313     -1622061.3      0             -1606179.1     -8126.4848      5122924      
     14400   315.03243     -1622053.6      0             -1606180.5     -8843.2592      5122702.3    
     14500   314.60618     -1622033.8      0             -1606182.1     -9457.2421      5122448.2    
     14600   314.20342     -1622015.4      0             -1606184       -9877.5969      5122160      
     14700   314.23403     -1622019.2      0             -1606186.2     -10090.59       5121837.3    
     14800   313.87596     -1622003.6      0             -1606188.7     -10034.759      5121480.6    
     14900   313.39737     -1621982        0             -1606191.3     -9726.0687      5121091.6    
     15000   313.80241     -1622005.1      0             -1606194       -9349.3898      5120673.2    
     15100   313.46126     -1621990.7      0             -1606196.7     -9110.4458      5120228.7    
     15200   312.65879     -1621953.1      0             -1606199.5     -8902.7853      5119760.5    
     15300   311.97201     -1621921.4      0             -1606202.4     -8737.5353      5119271      
     15400   312.71404     -1621961.7      0             -1606205.4     -8570.0508      5118762.4    
     15500   311.57055     -1621907.1      0             -1606208.4     -8520.1735      5118236.5    
     15600   312.2267      -1621943.3      0             -1606211.5     -8631.0657      5117695      
     15700   311.57966     -1621913.9      0             -1606214.7     -9046.2471      5117138.4    
     15800   311.60692     -1621918.8      0             -1606218.3     -9765.0425      5116566      
     15900   311.17023     -1621900.8      0             -1606222.2     -10587.638      5115975.8    
     16000   310.33067     -1621862.9      0             -1606226.6     -11434.734      5115365.6    
     16100   309.95341     -1621848.7      0             -1606231.5     -12149.785      5114733.1    
     16200   309.87523     -1621850.1      0             -1606236.8     -12565.91       5114077      
     16300   309.12847     -1621818        0             -1606242.3     -12686.418      5113397.5    
     16400   308.88675     -1621811.6      0             -1606248.1     -12603.508      5112696.3    
     16500   309.20623     -1621833.5      0             -1606253.9     -12498.836      5111976.1    
     16600   309.7733      -1621868        0             -1606259.8     -12213.568      5111239.7    
     16700   310.04384     -1621887.4      0             -1606265.6     -11642.08       5110490.9    
     16800   310.11332     -1621896.5      0             -1606271.2     -10945.47       5109734.1    
     16900   309.31949     -1621861.7      0             -1606276.4     -10195.057      5108974.6    
     17000   308.81134     -1621840.9      0             -1606281.2     -9561.2393      5108216.9    
     17100   309.06159     -1621858.1      0             -1606285.8     -9174.1966      5107465.2    
     17200   308.92711     -1621855.8      0             -1606290.3     -9099.1813      5106721.7    
     17300   308.82346     -1621855        0             -1606294.7     -9307.0013      5105987.2    
     17400   309.18047     -1621877.5      0             -1606299.2     -9740.2631      5105261      
     17500   309.09929     -1621878.1      0             -1606303.9     -10223.424      5104541.1    
     17600   308.66464     -1621861        0             -1606308.8     -10741.76       5103825.3    
     17700   308.59287     -1621862.5      0             -1606313.8     -11134.243      5103111.5    
     17800   308.52747     -1621864.5      0             -1606319.1     -11537          5102398.2    
     17900   308.15316     -1621851.1      0             -1606324.5     -11925.231      5101683.7    
     18000   307.76348     -1621837        0             -1606330.1     -12126.623      5100966.9    
     18100   307.70715     -1621839.8      0             -1606335.8     -12093.613      5100247.2    
     18200   307.41188     -1621830.5      0             -1606341.4     -11797.563      5099525.5    
     18300   307.53899     -1621842.4      0             -1606346.8     -11329.026      5098803.4    
     18400   308.08286     -1621875        0             -1606352       -10718.348      5098083.5    
     18500   307.84226     -1621867.7      0             -1606356.8     -10076.046      5097368.5    
     18600   308.11466     -1621885.9      0             -1606361.3     -9452.1469      5096661.3    
     18700   307.81491     -1621875        0             -1606365.5     -8839.3641      5095964.3    
     18800   308.05765     -1621891.1      0             -1606369.4     -8336.9026      5095279.4    
     18900   308.80868     -1621932.6      0             -1606373       -7980.3146      5094608.2    
     19000   308.40678     -1621915.8      0             -1606376.5     -7837.9018      5093951.1    
     19100   308.83275     -1621940.6      0             -1606379.9     -7920.2958      5093307.6    
     19200   308.98725     -1621951.8      0             -1606383.2     -8189.3164      5092675.9    
     19300   309.09849     -1621960.8      0             -1606386.7     -8517.4994      5092054      
     19400   308.98537     -1621958.7      0             -1606390.2     -8796.8462      5091439.3    
     19500   309.2699      -1621976.6      0             -1606393.8     -8911.0125      5090829.8    
     19600   308.90817     -1621961.9      0             -1606397.4     -8857.9917      5090224.4    
     19700   308.49853     -1621944.8      0             -1606400.9     -8737.7203      5089622.7    
     19800   309.49781     -1621998.6      0             -1606404.3     -8554.8856      5089024.8    
     19900   310.3226      -1622043.5      0             -1606407.7     -8244.3384      5088431.1    
     20000   310.06788     -1622033.8      0             -1606410.8     -7742.4354      5087842.6    
     20100   310.18703     -1622042.7      0             -1606413.7     -7204.1514      5087260.9    
     20200   310.74253     -1622073.4      0             -1606416.4     -6611.3573      5086687.9    
     20300   310.10958     -1622043.9      0             -1606418.8     -6013.181       5086125.5    
     20400   310.55669     -1622068.7      0             -1606421       -5528.8336      5085575.4    
     20500   310.65246     -1622075.5      0             -1606423.1     -5195.5207      5085038.7    
     20600   311.08586     -1622099.2      0             -1606424.9     -4984.4002      5084515.8    
     20700   311.18959     -1622106.2      0             -1606426.7     -4816.9035      5084006.5    
     20800   312.35829     -1622166.8      0             -1606428.4     -4814.2593      5083510.2    
     20900   312.05789     -1622153.3      0             -1606430.1     -4802.3985      5083026      
     21000   312.48642     -1622176.6      0             -1606431.7     -4736.9295      5082552.7    
     21100   312.00493     -1622153.9      0             -1606433.3     -4581.092       5082089.7    
     21200   312.30868     -1622170.6      0             -1606434.7     -4244.7962      5081636.8    
     21300   312.96073     -1622204.8      0             -1606436.1     -3768.065       5081194.6    
     21400   313.03035     -1622209.5      0             -1606437.2     -3244.8023      5080764.3    
     21500   313.5285      -1622235.6      0             -1606438.2     -2683.0466      5080347.3    
     21600   313.66763     -1622243.4      0             -1606439       -2129.3928      5079945.1    
     21700   313.91418     -1622256.5      0             -1606439.7     -1598.8199      5079559      
     21800   314.37632     -1622280.3      0             -1606440.3     -1143.2775      5079190.1    
     21900   314.37347     -1622280.6      0             -1606440.7     -683.72493      5078839.4    
     22000   314.3119      -1622277.8      0             -1606441       -288.51068      5078507.5    
     22100   314.87517     -1622306.5      0             -1606441.2     -78.619351      5078194.8    
     22200   314.99488     -1622312.7      0             -1606441.5      13.623103      5077900.8    
     22300   314.67139     -1622296.6      0             -1606441.7      54.278971      5077624.7    
     22400   314.8265      -1622304.7      0             -1606441.9      18.319573      5077365.4    
     22500   315.05122     -1622316.2      0             -1606442.1      95.453709      5077121.4    
     22600   315.30733     -1622329.3      0             -1606442.3      225.76397      5076892.2    
     22700   315.44885     -1622336.6      0             -1606442.5      450.56511      5076677.2    
     22800   315.53861     -1622341.3      0             -1606442.6      772.65637      5076476.7    
     22900   315.09163     -1622318.9      0             -1606442.8      1188.4731      5076291      
     23000   315.00692     -1622314.7      0             -1606442.8      1730.3729      5076121.3    
     23100   316.146       -1622372.1      0             -1606442.9      2354.6349      5075968.8    
     23200   315.22535     -1622325.7      0             -1606442.9      3068.0002      5075835.7    
     23300   315.36313     -1622332.6      0             -1606442.8      3740.7949      5075724      
     23400   315.72363     -1622350.8      0             -1606442.9      4217.3293      5075635.5    
     23500   316.01224     -1622365.4      0             -1606442.9      4550.9722      5075571.2    
     23600   315.63211     -1622346.4      0             -1606443        4706.5184      5075531.4    
     23700   315.38713     -1622334.2      0             -1606443.2      4673.9735      5075515.5    
     23800   315.4441      -1622337.3      0             -1606443.4      4507.8369      5075522.2    
     23900   315.65019     -1622348        0             -1606443.8      4305.4458      5075549.5    
     24000   315.76681     -1622354.2      0             -1606444.1      4043.5426      5075595.6    
     24100   315.33667     -1622332.9      0             -1606444.5      3898.7053      5075658.4    
     24200   315.12278     -1622322.6      0             -1606444.9      3826.6573      5075736.4    
     24300   314.6768      -1622300.6      0             -1606445.3      3913.8506      5075828.7    
     24400   314.88858     -1622311.7      0             -1606445.8      4179.4477      5075935.1    
     24500   314.87151     -1622311.4      0             -1606446.4      4535.0613      5076056.1    
     24600   314.50105     -1622293.4      0             -1606447        4976.3162      5076193      
     24700   314.41676     -1622289.9      0             -1606447.7      5359.7777      5076346.8    
     24800   315.2267      -1622331.5      0             -1606448.6      5736.8658      5076518.7    
     24900   314.42451     -1622292        0             -1606449.5      6112.2781      5076709.9    
     25000   314.07855     -1622275.6      0             -1606450.6      6466.1465      5076921.1    
     25100   314.21255     -1622283.6      0             -1606451.8      6678.3851      5077153.1    
     25200   314.99545     -1622324.3      0             -1606453.1      6750.5839      5077406.1    
     25300   314.8279      -1622317.3      0             -1606454.4      6707.1566      5077679.5    
     25400   314.25549     -1622289.9      0             -1606455.9      6548.2611      5077972.1    
     25500   314.42554     -1622299.9      0             -1606457.4      6379.0028      5078282.6    
     25600   313.57895     -1622258.7      0             -1606458.8      6154.598       5078609.1    
     25700   313.68058     -1622265.4      0             -1606460.4      6048.4669      5078950      
     25800   313.70021     -1622267.9      0             -1606461.9      5994.6772      5079304.1    
     25900   314.3507      -1622302.3      0             -1606463.5      6026.6428      5079670.5    
     26000   313.35069     -1622253.6      0             -1606465.2      6157.2176      5080048.7    
     26100   313.8922      -1622282.6      0             -1606466.9      6388.8786      5080438.7    
     26200   314.13377     -1622296.7      0             -1606468.8      6632.7151      5080840.9    
     26300   312.99166     -1622241.1      0             -1606470.8      6891.1992      5081255.8    
     26400   313.11032     -1622249.1      0             -1606472.8      7001.5431      5081683.6    
     26500   313.02434     -1622247        0             -1606475        6981.6939      5082124.1    
     26600   313.04346     -1622250.1      0             -1606477.2      6946.8414      5082576.5    
     26700   313.09786     -1622255.1      0             -1606479.4      6807.8432      5083039.6    
     26800   313.61898     -1622283.5      0             -1606481.6      6642.43        5083512.3    
     26900   313.41657     -1622275.5      0             -1606483.8      6415.3723      5083992.8    
     27000   313.59882     -1622286.8      0             -1606485.9      6099.9168      5084479.4    
     27100   313.74391     -1622296.2      0             -1606488        5826.131       5084970.2    
     27200   313.26875     -1622274.2      0             -1606490        5689.6735      5085463.3    
     27300   313.15167     -1622270.3      0             -1606491.9      5689.9334      5085957.6    
     27400   312.83833     -1622256.5      0             -1606493.9      5836.7418      5086452.9    
     27500   313.45397     -1622289.6      0             -1606496        6007.3065      5086949.3    
     27600   313.92665     -1622315.5      0             -1606498.1      6226.2736      5087447.4    
     27700   313.77465     -1622310.1      0             -1606500.3      6431.9677      5087947.9    
     27800   313.53075     -1622300        0             -1606502.6      6461.1741      5088451.1    
     27900   313.63715     -1622307.7      0             -1606504.8      6407.9503      5088957      
     28000   313.52346     -1622304.1      0             -1606507        6218.3097      5089464.7    
     28100   313.00779     -1622280.3      0             -1606509.2      5862.5165      5089973      
     28200   313.54673     -1622309.5      0             -1606511.2      5350.2775      5090479.9    
     28300   313.12465     -1622290        0             -1606513        4683.4911      5090983      
     28400   313.36264     -1622303.6      0             -1606514.5      4047.1232      5091479      
     28500   313.03253     -1622288.3      0             -1606515.9      3548.5353      5091965.4    
     28600   312.81712     -1622278.6      0             -1606517.1      3222.7232      5092440.1    
     28700   312.7307      -1622275.4      0             -1606518.2      3001.8026      5092902.1    
     28800   312.80239     -1622280        0             -1606519.3      2819.2536      5093351.1    
     28900   313.15833     -1622299        0             -1606520.2      2801.9696      5093787      
     29000   313.0902      -1622296.5      0             -1606521.2      2910.8832      5094210.5    
     29100   313.13782     -1622299.9      0             -1606522.2      3083.7223      5094622.8    
     29200   313.41836     -1622315        0             -1606523.2      3315.0697      5095025.3    
     29300   312.77192     -1622283.5      0             -1606524.3      3548.0578      5095419.8    
     29400   313.06693     -1622299.5      0             -1606525.3      3633.8097      5095807.8    
     29500   313.07336     -1622300.9      0             -1606526.4      3551.2955      5096190.1    
     29600   313.1373      -1622305.1      0             -1606527.4      3224.2301      5096566.7    
     29700   312.71025     -1622284.5      0             -1606528.3      2811.301       5096936.5    
     29800   313.3088      -1622315.4      0             -1606529.1      2281.5013      5097298      
     29900   313.47811     -1622324.6      0             -1606529.8      1605.553       5097649.3    
     30000   313.30349     -1622316.3      0             -1606530.3      855.94522      5097988      
Loop time of 1146.25 on 6 procs for 30000 steps with 389802 atoms

Performance: 2.261 ns/day, 10.613 hours/ns, 26.172 timesteps/s
99.8% CPU use with 6 MPI tasks x 1 OpenMP threads

MPI task timing breakdown:
Section |  min time  |  avg time  |  max time  |%varavg| %total
---------------------------------------------------------------
Pair    | 755.54     | 817.16     | 866.08     | 126.5 | 71.29
Neigh   | 0.23087    | 0.26047    | 0.27947    |   3.9 |  0.02
Comm    | 31.457     | 37.369     | 48.961     | 105.7 |  3.26
Output  | 3.1356     | 3.1427     | 3.1488     |   0.3 |  0.27
Modify  | 206.49     | 248.28     | 304.71     | 200.2 | 21.66
Other   |            | 40.03      |            |       |  3.49

Nlocal:          64967 ave       67945 max       61726 min
Histogram: 2 0 0 0 0 0 1 2 0 1
Nghost:        34724.7 ave       39745 max       27876 min
Histogram: 2 0 0 0 0 0 1 1 0 2
Neighs:              0 ave           0 max           0 min
Histogram: 6 0 0 0 0 0 0 0 0 0

Total # of neighbors = -6
Ave neighs/atom = -1.539243e-05
Neighbor list builds = 348
Dangerous builds = 0
write_data void-nial09-thermalised.data
System init for write_data ...
Total wall time: 0:19:08
