LAMMPS (29 Sep 2021)
  using 1 OpenMP thread(s) per MPI task
Reading data file ...
  orthogonal box = (0.030692611 -0.11146740 0.0000000) to (101.87479 101.51695 530.81251)
  3 by 2 by 16 MPI processor grid
  reading atoms ...
  449770 atoms
  reading velocities ...
  449770 velocities
  read_data CPU = 4.583 seconds
227721 atoms in group g_left
222049 atoms in group g_right

CITE-CITE-CITE-CITE-CITE-CITE-CITE-CITE-CITE-CITE-CITE-CITE-CITE

Your simulation uses code contributions which should be cited:
- @article{cjiang2012
The log file lists these citations in BibTeX format.

CITE-CITE-CITE-CITE-CITE-CITE-CITE-CITE-CITE-CITE-CITE-CITE-CITE

Neighbor list info ...
  update every 1 steps, delay 10 steps, check yes
  max neighbors/atom: 2000, page size: 100000
  master list distance cutoff = 8.28721
  ghost atom cutoff = 8.28721
  binsize = 4.143605, bins = 25 25 129
  3 neighbor lists, perpetual/occasional/extra = 3 0 0
  (1) pair eam/alloy, perpetual, skip from (3)
      attributes: half, newton on
      pair build: skip
      stencil: none
      bin: none
  (2) pair edip/multi, perpetual
      attributes: full, newton on
      pair build: full/bin/atomonly
      stencil: full/bin/3d
      bin: standard
  (3) neighbor class addition, perpetual, half/full from (2)
      attributes: half, newton on
      pair build: halffull/newton
      stencil: none
      bin: none
Setting up Verlet run ...
  Unit style    : metal
  Current step  : 0
  Time step     : 0.00025
Per MPI rank memory allocation (min/avg/max) = 8.089 | 12.69 | 16.82 Mbytes
Step Time Temp Press PotEng KinEng TotEng Volume 
       0            0    7862.8924    85703.938   -2165844.8    457126.59   -1708718.2    5494044.8 
     100        0.025    7861.9369    86068.896   -2165849.5    457071.05   -1708778.5    5483694.5 
     200         0.05    7861.9828    86017.144     -2165854    457073.71   -1708780.3    5473344.3 
     300        0.075     7861.905    86337.822   -2165851.5    457069.19   -1708782.4      5462994 
     400          0.1    7861.7471    86067.288   -2165849.1    457060.01   -1708789.1    5452643.8 
     500        0.125    7862.0522    86037.188   -2165858.4    457077.75   -1708780.7    5442293.5 
     600         0.15    7862.0841    86773.687     -2165849     457079.6   -1708769.4    5431943.3 
     700        0.175    7861.8221    87081.873     -2165839    457064.37   -1708774.6      5421593 
     800          0.2    7861.5136    86856.624   -2165836.2    457046.44   -1708789.8    5411242.8 
     900        0.225     7862.396     87381.17   -2165869.4    457097.74   -1708771.7    5400892.5 
    1000         0.25     7862.266    87359.952   -2165836.8    457090.18   -1708746.7    5390542.2 
    1100        0.275    7861.8317    87313.567   -2165843.6    457064.93   -1708778.7      5380192 
    1200          0.3     7861.449    87365.254   -2165854.1    457042.68   -1708811.4    5369841.7 
    1300        0.325    7861.7779    87782.582   -2165854.5     457061.8   -1708792.7    5359491.5 
    1400         0.35    7861.8102    87986.666   -2165862.3    457063.68   -1708798.6    5349141.2 
    1500        0.375    7861.4362    87816.474   -2165855.3    457041.94   -1708813.3      5338791 
    1600          0.4    7861.7993    88463.764   -2165863.1    457063.05     -1708800    5328440.7 
    1700        0.425    7861.1202    87983.362     -2165842    457023.56   -1708818.4    5318090.5 
    1800         0.45     7861.516     88347.34   -2165879.8    457046.57   -1708833.2    5307740.2 
    1900        0.475    7861.1486    88486.679   -2165837.9    457025.22   -1708812.7      5297390 
    2000          0.5    7861.3785    89055.602   -2165850.4    457038.58   -1708811.8    5287039.7 
    2100        0.525    7861.4835    89078.894   -2165863.4    457044.68   -1708818.7    5276689.4 
    2200         0.55    7861.2468    89208.757   -2165848.5    457030.93   -1708817.6    5266339.2 
    2300        0.575    7861.3011     89281.28   -2165873.7    457034.08   -1708839.7    5255988.9 
    2400          0.6    7860.7341    89320.618     -2165858    457001.12   -1708856.9    5245638.7 
    2500        0.625    7861.1654    90275.907   -2165875.1    457026.19   -1708848.9    5235288.4 
    2600         0.65    7861.5556    90206.191     -2165892    457048.88   -1708843.1    5224938.2 
    2700        0.675    7863.0754    90600.183   -2165960.1    457137.23   -1708822.9    5214587.9 
    2800          0.7    7863.3458    91249.496   -2165958.6    457152.96   -1708805.7    5204237.7 
    2900        0.725    7854.1159    94363.401   -2165426.2    456616.36   -1708809.8    5193887.4 
    3000         0.75    7831.0611       101199   -2164088.6    455276.01   -1708812.6    5183537.1 
    3100        0.775    7785.0811    111693.56   -2161419.7    452602.86   -1708816.9    5173186.9 
    3200          0.8    7726.1161    124742.17   -2158012.7     449174.8   -1708837.9    5162836.6 
    3300        0.825    7662.5102    137777.49     -2154313    445476.94   -1708836.1    5152486.4 
    3400         0.85    7599.3861    150758.31   -2150618.1    441807.08     -1708811    5142136.1 
    3500        0.875    7538.9159    162090.09   -2147105.1    438291.51   -1708813.6    5131785.9 
    3600          0.9    7475.0461    172976.59   -2143435.7     434578.3   -1708857.4    5121435.6 
    3700        0.925    7413.9153    183835.59   -2139888.1    431024.32   -1708863.8    5111085.4 
    3800         0.95    7352.3354    191757.36   -2136296.9    427444.24   -1708852.7    5100735.1 
    3900        0.975    7289.9037     199079.2   -2132675.6    423814.63     -1708861    5090384.9 
    4000            1    7225.6711    207509.82   -2128965.4    420080.33     -1708885    5080034.6 
    4100        1.025    7160.4453    215930.13   -2125181.6    416288.28   -1708893.3    5069684.3 
    4200         1.05    7098.9962    221121.58     -2121594    412715.81   -1708878.2    5059334.1 
    4300        1.075    7038.1938    226562.89   -2118070.8    409180.93   -1708889.8    5048983.8 
    4400          1.1      6980.73    230213.32     -2114749    405840.14   -1708908.9    5038633.6 
    4500        1.125    6923.2646    234012.83   -2111407.7    402499.26   -1708908.5    5028283.3 
    4600         1.15     6870.594    236269.78     -2108329    399437.14   -1708891.9    5017933.1 
    4700        1.175    6819.2843    240225.86   -2105344.1    396454.14     -1708890    5007582.8 
    4800          1.2     6765.368    243999.34     -2102207    393319.59   -1708887.4    4997232.6 
    4900        1.225    6712.4427    247236.71   -2099115.9    390242.67   -1708873.3    4986882.3 
    5000         1.25    6662.5069    250695.95   -2096193.9    387339.54   -1708854.4      4976532 
    5100        1.275    6614.2495    253827.66   -2093392.4    384533.99   -1708858.4    4966181.8 
    5200          1.3    6567.0535    258226.48   -2090643.6    381790.14   -1708853.4    4955831.5 
    5300        1.325    6524.8403    262464.06   -2088178.1    379335.98   -1708842.1    4945481.3 
    5400         1.35    6478.2541     265593.9     -2085465    376627.59   -1708837.4      4935131 
    5500        1.375    6437.7816    270304.88   -2083132.3    374274.63   -1708857.7    4924780.8 
    5600          1.4    6396.5539     275229.9   -2080741.2    371877.77   -1708863.4    4914430.5 
    5700        1.425    6356.0275    280390.69   -2078381.2    369521.68   -1708859.5    4904080.3 
    5800         1.45    6317.3913    285153.77   -2076130.8    367275.48   -1708855.4      4893730 
    5900        1.475    6279.4963    287570.38   -2073945.4    365072.37     -1708873    4883379.8 
    6000          1.5    6242.0312    293294.66   -2071766.9    362894.25   -1708872.7    4873029.5 
    6100        1.525    6202.6651    298236.23   -2069484.1    360605.62   -1708878.5    4862679.2 
    6200         1.55    6160.8265    303486.38   -2067081.9    358173.24   -1708908.7      4852329 
    6300        1.575    6123.5631    305875.09   -2064920.7    356006.85   -1708913.9    4841978.7 
    6400          1.6    6082.9827     309744.1   -2062523.4    353647.62   -1708875.8    4831628.5 
    6500        1.625    6044.8299    313895.43   -2060281.1    351429.52   -1708851.5    4821278.2 
    6600         1.65    6001.3297    318743.12   -2057790.7    348900.54   -1708890.2      4810928 
    6700        1.675    5955.3761    323089.13   -2055125.3    346228.93   -1708896.4    4800577.7 
    6800          1.7    5909.2451     327913.3   -2052433.2       343547   -1708886.2    4790227.5 
    6900        1.725    5862.7233     333161.5   -2049730.9    340842.36   -1708888.5    4779877.2 
    7000         1.75     5850.836    335730.03   -2049070.1    340151.26   -1708918.9    4769526.9 
    7100        1.775    5850.8103    337262.74   -2049065.8    340149.76   -1708916.1    4759176.7 
    7200          1.8    5814.5529    339227.48   -2046934.9    338041.86     -1708893    4748826.4 
    7300        1.825    5799.5737    342107.99   -2046080.8    337171.01   -1708909.8    4738476.2 
    7400         1.85    5784.2891    345289.34   -2045229.9    336282.41   -1708947.5    4728125.9 
    7500        1.875    5744.0901    349518.02   -2042883.4    333945.35   -1708938.1    4717775.7 
    7600          1.9    5736.0093    352322.69   -2042389.8    333475.55   -1708914.3    4707425.4 
    7700        1.925    5702.9481    355232.74     -2040452    331553.47   -1708898.5    4697075.2 
    7800         1.95    5660.6082    358728.97     -2038003    329091.95   -1708911.1    4686724.9 
    7900        1.975    5649.9839    363332.49   -2037382.9    328474.28   -1708908.6    4676374.7 
    8000            2    5605.7664    367116.13   -2034783.8     325903.6   -1708880.2    4666024.4 
    8100        2.025    5581.0603     371980.9   -2033331.7    324467.25   -1708864.5    4655674.1 
    8200         2.05    5523.8437    376501.12   -2029993.8    321140.84   -1708852.9    4645323.9 
    8300        2.075    5466.3176    382753.46   -2026626.5    317796.43     -1708830    4634973.6 
    8400          2.1     5392.104    385491.48   -2022295.4    313481.86   -1708813.6    4624623.4 
    8500        2.125     5342.244     392518.8   -2019399.8    310583.14   -1708816.7    4614273.1 
    8600         2.15     5268.283    398436.23   -2015102.2    306283.25   -1708818.9    4603922.9 
    8700        2.175    5206.6266    403091.66   -2011517.4    302698.72   -1708818.7    4593572.6 
    8800          2.2    5132.4017    408829.62   -2007211.5    298383.49     -1708828    4583222.4 
    8900        2.225    5073.0046    414982.56   -2003763.2    294930.32   -1708832.9    4572872.1 
    9000         2.25    5010.4737    422031.85   -2000130.2    291294.94   -1708835.2    4562521.8 
    9100        2.275    4947.7108    427989.22   -1996462.5    287646.08   -1708816.4    4552171.6 
    9200          2.3    4879.6887    435019.14   -1992501.4    283691.47   -1708809.9    4541821.3 
    9300        2.325    4817.8209    440350.14   -1988922.8    280094.64   -1708828.1    4531471.1 
    9400         2.35    4754.6824    444683.92   -1985253.6    276423.95   -1708829.6    4521120.8 
    9500        2.375    4698.4292    452249.71   -1981988.3    273153.54   -1708834.8    4510770.6 
    9600          2.4    4640.4176    457311.48   -1978608.4    269780.91   -1708827.5    4500420.3 
    9700        2.425    4580.6745    463188.21   -1975143.4    266307.62   -1708835.8    4490070.1 
    9800         2.45    4526.3584    469897.46   -1971976.7    263149.83   -1708826.8    4479719.8 
    9900        2.475    4475.1067    475698.72   -1968993.6     260170.2   -1708823.4    4469369.6 
   10000          2.5    4422.2013    480162.78   -1965902.1    257094.43   -1708807.6    4459019.3 
   10100        2.525    4378.0935    486287.28   -1963332.6    254530.12   -1708802.5      4448669 
   10200         2.55    4338.0642    490459.16   -1960984.7    252202.93   -1708781.8    4438318.8 
   10300        2.575    4314.3602    492404.55   -1959609.2    250824.85   -1708784.4    4427968.5 
   10400          2.6    4290.7453    494280.96   -1958236.9    249451.94   -1708784.9    4417618.3 
   10500        2.625    4257.2064    496867.81   -1956261.9    247502.08   -1708759.8      4407268 
   10600         2.65    4239.3441    499031.13   -1955222.1    246463.62   -1708758.4    4396917.8 
   10700        2.675    4210.4789    502273.27   -1953543.2    244785.48   -1708757.7    4386567.5 
   10800          2.7    4183.4066    503532.23   -1951965.1    243211.57   -1708753.6    4376217.3 
   10900        2.725    4163.6067    506171.81   -1950807.2    242060.46   -1708746.7      4365867 
   11000         2.75    4135.0849    508866.38   -1949144.6    240402.28   -1708742.3    4355516.7 
   11100        2.775    4112.3414    511869.58   -1947809.7    239080.04   -1708729.7    4345166.5 
   11200          2.8    4086.9639    516078.47   -1946327.5    237604.66   -1708722.9    4334816.2 
   11300        2.825    4063.9604    516790.97   -1944988.6    236267.31   -1708721.3      4324466 
   11400         2.85    4040.3861    522436.87   -1943634.3    234896.76   -1708737.5    4314115.7 
   11500        2.875    4007.2712    525605.58   -1941695.5    232971.55   -1708723.9    4303765.5 
   11600          2.9     3965.067    530354.87     -1939228    230517.92   -1708710.1    4293415.2 
   11700        2.925    3922.7638    534961.57   -1936759.4    228058.53   -1708700.9      4283065 
   11800         2.95    3910.9024     538483.6   -1936065.3    227368.94   -1708696.3    4272714.7 
   11900        2.975     3872.507    541457.64   -1933824.7    225136.74     -1708688    4262364.5 
   12000            3    3844.7767    545010.52   -1932176.7    223524.57   -1708652.1    4252014.2 
   12100        3.025    3828.1397    551344.62   -1931193.3    222557.34     -1708636    4241663.9 
   12200         3.05    3797.6319     557944.9     -1929427    220783.71   -1708643.3    4231313.7 
   12300        3.075    3768.8372    561229.35   -1927746.1    219109.67   -1708636.5    4220963.4 
   12400          3.1    3749.5703    568338.07   -1926626.4    217989.54   -1708636.9    4210613.2 
   12500        3.125    3703.8919    576465.31   -1923990.2    215333.93   -1708656.3    4200262.9 
   12600         3.15    3688.3853     582365.7   -1923087.4    214432.42     -1708655    4189912.7 
   12700        3.175    3648.0449    590865.41   -1920744.8    212087.14   -1708657.7    4179562.4 
   12800          3.2    3611.2001    599842.75   -1918584.6    209945.08   -1708639.5    4169212.2 
   12900        3.225    3582.2833    608328.53   -1916884.6    208263.94   -1708620.6    4158861.9 
   13000         3.25    3528.5579    618465.61   -1913766.9     205140.5   -1708626.4    4148511.6 
   13100        3.275    3485.4483    630420.25     -1911273    202634.22   -1708638.8    4138161.4 
   13200          3.3    3417.3482    640168.03   -1907314.9    198675.08   -1708639.8    4127811.1 
   13300        3.325    3347.5567    651661.63   -1903278.4    194617.59   -1708660.8    4117460.9 
   13400         3.35    3290.7226    663731.48   -1899961.6    191313.42   -1708648.2    4107110.6 
   13500        3.375    3207.7875    673890.97   -1895124.6    186491.81   -1708632.8    4096760.4 
   13600          3.4    3146.9463    683512.32     -1891568    182954.67   -1708613.3    4086410.1 
   13700        3.425    3078.6994    693776.59   -1887603.2    178986.98   -1708616.3    4076059.9 
   13800         3.45    3016.2956    702793.31   -1883986.2       175359   -1708627.2    4065709.6 
   13900        3.475    2952.2407    710116.16   -1880258.3    171635.03   -1708623.3    4055359.4 
   14000          3.5     2885.044    718034.64   -1876372.2     167728.4   -1708643.8    4045009.1 
   14100        3.525     2830.074    727091.55   -1873176.3     164532.6   -1708643.7    4034658.8 
   14200         3.55    2769.8966    732724.51   -1869671.3    161034.05   -1708637.3    4024308.6 
   14300        3.575    2723.8497    739491.66   -1866965.6    158357.01   -1708608.6    4013958.3 
   14400          3.6    2669.9724    745743.48   -1863808.7    155224.74   -1708583.9    4003608.1 
   14500        3.625     2622.167    751879.41   -1861033.4    152445.46   -1708587.9    3993257.8 
   14600         3.65    2576.4625    755769.96   -1858383.4    149788.33   -1708595.1    3982907.6 
   14700        3.675    2534.7065    761048.09   -1855962.4    147360.75   -1708601.7    3972557.3 
   14800          3.7    2488.5253    768514.03   -1853306.9    144675.91     -1708631    3962207.1 
   14900        3.725    2448.9722    773151.91   -1850994.3     142376.4   -1708617.9    3951856.8 
   15000         3.75    2402.0672    779879.79   -1848285.7    139649.48   -1708636.2    3941506.5 
   15100        3.775     2364.936    785270.29   -1846116.2    137490.77   -1708625.4    3931156.3 
   15200          3.8    2341.9461     791030.5   -1844783.9     136154.2   -1708629.7      3920806 
   15300        3.825    2328.6766    793863.83   -1844006.2    135382.75   -1708623.5    3910455.8 
   15400         3.85    2301.3255    796243.92   -1842426.2    133792.64   -1708633.5    3900105.5 
   15500        3.875    2285.7407    798923.79   -1841536.6    132886.58     -1708650    3889755.3 
   15600          3.9    2270.0554    800883.33   -1840614.8    131974.68   -1708640.1      3879405 
   15700        3.925     2241.978    806784.33   -1838960.6    130342.34   -1708618.3    3869054.8 
   15800         3.95    2236.8958    808241.96     -1838651    130046.87   -1708604.1    3858704.5 
   15900        3.975    2203.8393    814593.67   -1836735.8    128125.06   -1708610.7    3848354.3 
   16000            4    2192.7667    817810.49   -1836089.1    127481.33   -1708607.7      3838004 
   16100        4.025    2167.2305    825549.11   -1834598.9    125996.73   -1708602.2    3827653.7 
   16200         4.05    2139.9078     831838.9   -1832996.2    124408.26   -1708587.9    3817303.5 
   16300        4.075    2130.3873    837895.25   -1832360.7    123854.77     -1708506    3806953.2 
   16400          4.1    2088.1529    844536.22   -1829841.8    121399.37   -1708442.5      3796603 
   16500        4.125    2076.4208    851362.32   -1828446.4    120717.31   -1707729.1    3786252.7 
   16600         4.15     2103.899    863071.42   -1824720.3    122314.81   -1702405.5    3775902.5 
   16700        4.175    2136.4167    877089.49   -1818864.1     124205.3   -1694658.8    3765552.2 
   16800          4.2    2111.6327    891743.64   -1809133.3    122764.42   -1686368.8      3755202 
   16900        4.225    2202.7962    904476.98   -1802681.1    128064.42   -1674616.7    3744851.7 
   17000         4.25    2255.3089    916021.46     -1793204    131117.36   -1662086.7    3734501.5 
   17100        4.275    2274.3273    924382.89   -1785253.5    132223.04   -1653030.5    3724151.2 
   17200          4.3    2318.2928    937815.54   -1777155.9    134779.07   -1642376.8    3713800.9 
   17300        4.325    2396.5685    949749.94   -1768087.3     139329.8   -1628757.6    3703450.7 
   17400         4.35    2469.3917    963981.23   -1758770.4    143563.53   -1615206.9    3693100.4 
   17500        4.375    2476.2733    979199.89   -1749136.1    143963.61   -1605172.5    3682750.2 
   17600          4.4      2466.13    994250.95   -1737797.4    143373.91   -1594423.5    3672399.9 
   17700        4.425    2493.7527    1014447.8   -1726642.6    144979.82   -1581662.8    3662049.7 
   17800         4.45    2504.1836    1034605.8   -1715124.7    145586.24   -1569538.4    3651699.4 
   17900        4.475    2489.8585      1053334   -1703343.7    144753.42   -1558590.3    3641349.2 
   18000          4.5    2515.6658      1074868   -1691379.9    146253.78   -1545126.1    3630998.9 
   18100        4.525    2588.9386      1097199   -1679022.4    150513.65   -1528508.8    3620648.6 
   18200         4.55    2658.5528    1120658.4     -1666422    154560.83   -1511861.1    3610298.4 
   18300        4.575    2740.4019      1142195   -1654400.9    159319.31   -1495081.5    3599948.1 
   18400          4.6    2842.2087    1167298.4   -1642064.9    165238.07   -1476826.8    3589597.9 
   18500        4.625    2973.9336    1187443.2   -1630853.4    172896.19   -1457957.2    3579247.6 
   18600         4.65    3088.4307    1205335.3   -1619919.5    179552.73   -1440366.8    3568897.4 
   18700        4.675    3187.2904    1222864.5   -1607998.9    185300.16   -1422698.7    3558547.1 
   18800          4.7    3309.2415    1239849.9   -1596124.2    192390.05   -1403734.2    3548196.9 
   18900        4.725    3445.0081      1258466   -1584906.8    200283.15   -1384623.7    3537846.6 
   19000         4.75    3577.2502    1280756.9   -1574262.4    207971.33     -1366291    3527496.4 
   19100        4.775    3716.4224    1303071.9   -1563774.6    216062.42   -1347712.1    3517146.1 
   19200          4.8    3883.0343    1325807.5   -1554090.2    225748.76   -1328341.4    3506795.8 
   19300        4.825    4053.3568    1349198.5   -1544667.6    235650.84   -1309016.7    3496445.6 
   19400         4.85     4194.363    1370330.6   -1534015.6    243848.55   -1290167.1    3486095.3 
   19500        4.875    4344.4166    1388891.3   -1523562.8    252572.24   -1270990.6    3475745.1 
   19600          4.9    4500.9688      1413059   -1513363.2    261673.75   -1251689.5    3465394.8 
   19700        4.925    4676.1725    1435175.9   -1504736.3    271859.61   -1232876.7    3455044.6 
   19800         4.95    4882.6312    1449566.7   -1498163.6    283862.53   -1214301.1    3444694.3 
   19900        4.975    5031.5036    1462118.2   -1488278.5    292517.56   -1195760.9    3434344.1 
   20000            5     5173.503    1474873.8   -1478718.4    300773.01   -1177945.4    3423993.8 
   20100        5.025    5339.6407    1489905.4   -1471325.7    310431.79   -1160893.9    3413643.5 
   20200         5.05    5464.2438    1510145.7   -1461880.5    317675.87   -1144204.7    3403293.3 
   20300        5.075    5604.6304    1528382.9   -1453583.4    325837.55   -1127745.8      3392943 
   20400          5.1    5714.0935    1544582.1   -1443751.3    332201.43   -1111549.9    3382592.8 
   20500        5.125    5814.5015    1565184.2   -1432904.1    338038.87   -1094865.3    3372242.5 
   20600         5.15    5930.4712    1589310.5   -1421870.5    344781.03   -1077089.5    3361892.3 
   20700        5.175      6044.45    1615186.8   -1410585.6    351407.44   -1059178.2      3351542 
   20800          5.2    6170.9286    1640521.9   -1399659.1    358760.55   -1040898.6    3341191.8 
   20900        5.225     6275.912    1667018.3   -1388012.6    364863.99   -1023148.6    3330841.5 
   21000         5.25    6362.3603    1692956.3   -1375952.9    369889.85   -1006063.1    3320491.3 
   21100        5.275    6454.3356      1717143   -1364757.2    375237.04   -989520.12      3310141 
   21200          5.3    6533.1607    1743066.4   -1352519.9    379819.71    -972700.2    3299790.7 
   21300        5.325    6631.1505    1769224.9   -1341035.3    385516.56   -955518.78    3289440.5 
   21400         5.35    6733.6377    1796104.9   -1329895.7    391474.88   -938420.77    3279090.2 
   21500        5.375    6841.0528    1822750.6   -1319769.3     397719.7    -922049.6      3268740 
   21600          5.4    6940.8765    1849911.8   -1309716.8    403523.17   -906193.61    3258389.7 
   21700        5.425    7043.5563    1879587.3   -1299892.7    409492.68   -890399.97    3248039.5 
   21800         5.45    7146.7694    1907049.6   -1290180.5    415493.21   -874687.32    3237689.2 
   21900        5.475    7243.6083    1933403.7   -1280130.3    421123.15   -859007.18      3227339 
   22000          5.5    7326.7814    1960451.5   -1269511.8     425958.6   -843553.24    3216988.7 
   22100        5.525     7399.428    1984046.7   -1259275.1    430182.07   -829093.05    3206638.4 
   22200         5.55    7460.4804    2007971.5   -1248587.8    433731.49   -814856.34    3196288.2 
   22300        5.575     7519.948    2035081.6   -1238273.7    437188.77   -801084.89    3185937.9 
   22400          5.6    7580.1694    2057946.5   -1227900.3    440689.87   -787210.39    3175587.7 
   22500        5.625    7659.9742      2081467   -1218732.6     445329.5   -773403.06    3165237.4 
   22600         5.65    7779.1361    2099303.3   -1211784.4    452257.24   -759527.15    3154887.2 
   22700        5.675    7874.1769    2111413.3     -1203040    457782.65   -745257.37    3144536.9 
   22800          5.7    7983.1859    2123386.7   -1194484.3    464120.13   -730364.15    3134186.7 
   22900        5.725    8106.8165    2137951.3   -1186511.2    471307.66   -715203.58    3123836.4 
   23000         5.75      8197.76      2157409   -1176712.3    476594.87   -700117.45    3113486.2 
   23100        5.775    8301.0341    2176909.9   -1166813.1    482598.93   -684214.21    3103135.9 
   23200          5.8    8393.2716    2205302.6   -1155089.8    487961.36   -667128.41    3092785.6 
   23300        5.825    8490.1765    2237904.8   -1141679.6    493595.14   -648084.46    3082435.4 
   23400         5.85    8580.5584    2273088.4     -1127374    498849.69   -628524.28    3072085.1 
   23500        5.875    8639.3908    2307624.9   -1112042.6    502270.05   -609772.56    3061734.9 
   23600          5.9    8692.4713    2349443.2     -1097028       505356   -591672.04    3051384.6 
   23700        5.925    8756.6817    2390261.6   -1082011.9    509089.01   -572922.85    3041034.4 
   23800         5.95    8838.2967    2431160.2   -1067458.2    513833.88   -553624.36    3030684.1 
   23900        5.975    8950.5676    2473859.6   -1054786.8    520360.99   -534425.82    3020333.9 
   24000            6    9073.9999    2520822.1   -1042948.7       527537   -515411.72    3009983.6 
   24100        6.025    9201.2769    2567380.3   -1031405.2    534936.53   -496468.71    2999633.3 
   24200         6.05    9337.8558    2608130.2   -1020434.8    542876.85   -477557.92    2989283.1 
   24300        6.075    9455.7019    2655303.6   -1008704.7    549728.09   -458976.61    2978932.8 
   24400          6.1    9552.8357    2701343.5    -995773.7    555375.18   -440398.52    2968582.6 
   24500        6.125    9620.8767    2746395.9    -981883.7    559330.89   -422552.81    2958232.3 
   24600         6.15    9669.5342    2791998.8   -967175.71     562159.7   -405016.01    2947882.1 
   24700        6.175    9697.5068    2835357.6   -951761.25    563785.95    -387975.3    2937531.8 
   24800          6.2    9709.9035    2873950.6   -935396.52    564506.66   -370889.86    2927181.6 
   24900        6.225    9711.5284    2916347.2    -918860.7    564601.13   -354259.58    2916831.3 
   25000         6.25    9674.7229    2949078.9   -900209.34    562461.36   -337747.98    2906481.1 
   25100        6.275    9630.2666    2994148.1   -881223.71     559876.8   -321346.92    2896130.8 
   25200          6.3    9582.1017    3032065.7   -861734.53    557076.62   -304657.91    2885780.5 
   25300        6.325    9518.8766    3076259.3   -841684.91    553400.89   -288284.02    2875430.3 
   25400         6.35    9451.7703    3114130.5   -821262.23    549499.52   -271762.71      2865080 
   25500        6.375    9369.5246    3155868.8   -800152.59    544717.98   -255434.61    2854729.8 
   25600          6.4    9267.2656    3195996.4   -778087.32    538772.93   -239314.38    2844379.5 
   25700        6.425    9148.1578    3239128.1   -755434.51    531848.34   -223586.17    2834029.3 
   25800         6.45    9025.0337    3283047.6   -732656.52    524690.24   -207966.28      2823679 
   25900        6.475    8892.8046    3330926.5   -709924.48    517002.81   -192921.67    2813328.8 
   26000          6.5    8758.4426      3372723    -687233.3    509191.38   -178041.91    2802978.5 
   26100        6.525    8642.8449    3416551.8   -665963.39    502470.86   -163492.54    2792628.2 
   26200         6.55    8536.4143    3455832.5   -645414.58    496283.28    -149131.3      2782278 
   26300        6.575     8446.957    3506892.6   -625720.59    491082.48   -134638.11    2771927.7 
   26400          6.6    8374.9556    3540204.3   -607619.95    486896.52   -120723.43    2761577.5 
   26500        6.625    8303.9854    3584767.6   -589863.85    482770.51   -107093.34    2751227.2 
   26600         6.65    8226.5081    3624478.5   -571743.53     478266.2   -93477.329      2740877 
   26700        6.675    8128.7818      3660953   -552954.15    472584.66   -80369.485    2730526.7 
   26800          6.7    8038.1781    3695930.9   -534531.51    467317.21   -67214.291    2720176.5 
   26900        6.725    7928.7453    3731030.5   -514780.95     460955.1   -53825.851    2709826.2 
   27000         6.75    7826.1534    3762970.3   -495778.61    454990.69   -40787.917      2699476 
   27100        6.775    7718.8104    3790499.4   -476097.88    448750.07   -27347.808    2689125.7 
   27200          6.8    7622.5889    3823397.5   -457473.12    443156.02   -14317.103    2678775.4 
   27300        6.825    7517.2957      3854439   -437927.81    437034.57   -893.23894    2668425.2 
   27400         6.85     7409.729    3882587.5   -418519.55    430780.94    12261.387    2658074.9 
   27500        6.875    7293.4761      3918915   -398432.76    424022.32    25589.565    2647724.7 
   27600          6.9    7193.1438    3945717.7   -378813.11    418189.29     39376.18    2637374.4 
   27700        6.925    7084.5753    3990599.7   -358572.91    411877.42     53304.51    2627024.2 
   27800         6.95     6981.589    4020429.8   -337912.58    405890.08    67977.493    2616673.9 
   27900        6.975    6893.4882    4060677.2   -317877.73    400768.14    82890.411    2606323.7 
   28000            7    6805.0482    4105678.5   -296062.14    395626.49    99564.347    2595973.4 
   28100        7.025    6782.6976    4154480.9   -276900.84    394327.09    117426.25    2585623.1 
   28200         7.05    6782.6365    4208495.4   -257544.24    394323.54     136779.3    2575272.9 
   28300        7.075    6792.6487    4263819.3    -238184.7    394905.62    156720.92    2564922.6 
   28400          7.1    6820.0827    4325509.4   -219538.43    396500.55    176962.12    2554572.4 
   28500        7.125     6831.785    4381187.1   -200004.65    397180.89    197176.25    2544222.1 
   28600         7.15     6857.998    4443514.6   -180679.11    398704.84    218025.73    2533871.9 
   28700        7.175     6877.985    4502629.7   -160541.03    399866.83     239325.8    2523521.6 
   28800          7.2    6876.0337    4568044.6   -139000.11    399753.39    260753.28    2513171.4 
   28900        7.225    6910.8486    4631310.5   -119035.34    401777.43    282742.09    2502821.1 
   29000         7.25    6911.1427    4686063.5   -96412.523    401794.53    305382.01    2492470.9 
   29100        7.275    6931.8079    4747929.1   -73653.508    402995.95    329342.44    2482120.6 
   29200          7.3    6965.7213    4805080.9   -50019.551    404967.58    354948.03    2471770.3 
   29300        7.325     7040.568    4874852.5   -26311.869    409318.95    383007.08    2461420.1 
   29400         7.35    7127.7262      4931977   -281.30232    414386.09    414104.78    2451069.8 
   29500        7.375     7235.604    4995824.3    27776.723     420657.8    448434.52    2440719.6 
   29600          7.4    7410.5645    5061448.4    55885.024    430829.51    486714.54    2430369.3 
   29700        7.425    7589.3581      5145326    87256.003    441224.08    528480.08    2420019.1 
   29800         7.45    7764.4226    5225365.4    121247.28    451401.84    572649.12    2409668.8 
   29900        7.475    7969.6183    5313733.7    156188.54    463331.34    619519.89    2399318.6 
   30000          7.5    8200.6219    5408748.3    191380.29    476761.25    668141.54    2388968.3 
   30100        7.525    8398.9201    5504506.5    229812.16    488289.75    718101.91      2378618 
   30200         7.55    8636.2256    5607629.8    267528.83    502086.03    769614.86    2368267.8 
   30300        7.575    8861.2474    5716661.3    307019.61    515168.17    822187.78    2357917.5 
   30400          7.6    9098.6725    5820203.9    346963.95     528971.4    875935.35    2347567.3 
   30500        7.625    9369.9758    5928784.4    386358.22    544744.22    931102.44      2337217 
   30600         7.65    9648.4521      6024901    425465.84    560934.05    986399.89    2326866.8 
   30700        7.675    9938.1551    6132388.2    464972.24    577776.57    1042748.8    2316516.5 
   30800          7.7      10265.2      6239723    502046.44    596790.07    1098836.5    2306166.3 
   30900        7.725    10520.991    6348852.3     542917.3    611660.99    1154578.3      2295816 
   31000         7.75    10824.373    6461143.5    580586.25    629298.83    1209885.1    2285465.8 
   31100        7.775    11083.232    6570489.2    620948.58    644348.14    1265296.7    2275115.5 
   31200          7.8    11331.642    6687697.8    661106.88    658790.02    1319896.9    2264765.2 
   31300        7.825    11601.784    6801840.1    700158.22    674495.34    1374653.6      2254415 
   31400         7.85    11844.971    6918366.4    740716.13    688633.49    1429349.6    2244064.7 
   31500        7.875    12084.581    7037035.8    780670.56    702563.79    1483234.4    2233714.5 
   31600          7.9    12305.055      7160728    821751.24    715381.51    1537132.7    2223364.2 
   31700        7.925    12537.818    7280291.1    862144.75     728913.7    1591058.5      2213014 
   31800         7.95    12722.293      7399392    904773.54    739638.55    1644412.1    2202663.7 
   31900        7.975    12994.092    7536129.5    944314.57     755440.2    1699754.8    2192313.5 
   32000            8    13258.298    7657356.9    984737.79    770800.38    1755538.2    2181963.2 
   32100        8.025     13501.01    7796238.8    1027342.5    784910.98    1812253.5      2171613 
   32200         8.05    13783.184    7955416.1    1068060.3    801315.83    1869376.2    2161262.7 
   32300        8.075    14119.107    8129419.9    1107589.8    820845.42    1928435.2    2150912.4 
   32400          8.1    14456.993      8324778    1148200.4    840489.21    1988689.6    2140562.2 
   32500        8.125    14800.494      8531028    1189090.4    860459.38    2049549.8    2130211.9 
   32600         8.15    15111.623    8745171.2    1231685.2    878547.56    2110232.8    2119861.7 
   32700        8.175    15356.512      8983165    1278503.3    892784.68    2171287.9    2109511.4 
   32800          8.2    15527.321    9207771.9    1329157.1    902715.07    2231872.2    2099161.2 
   32900        8.225     15649.06    9442129.6    1383056.5    909792.64    2292849.2    2088810.9 
   33000         8.25    15676.168      9645845      1442021    911368.64    2353389.7    2078460.7 
   33100        8.275    15653.224      9841958    1503259.2     910034.7    2413293.9    2068110.4 
   33200          8.3    15601.102     10027106    1566673.9    907004.46    2473678.4    2057760.1 
   33300        8.325    15487.741     10206455    1632613.8       900414    2533027.8    2047409.9 
   33400         8.35    15327.976     10396824    1700925.1    891125.72    2592050.8    2037059.6 
   33500        8.375    15177.883     10594158    1767766.9    882399.69    2650166.6    2026709.4 
   33600          8.4    15004.694     10769700    1835218.2    872330.98    2707549.2    2016359.1 
   33700        8.425    14802.272     10953951    1903095.5    860562.72    2763658.2    2006008.9 
   33800         8.45    14553.607     11142236    1972956.7    846106.06    2819062.8    1995658.6 
   33900        8.475    14334.879     11312771    2040592.9    833389.81    2873982.8    1985308.4 
   34000          8.5    14108.079     11487835    2108646.2    820204.29    2928850.5    1974958.1 
   34100        8.525    13829.888     11656231    2179857.9    804031.07      2983889    1964607.9 
   34200         8.55    13587.397     11837640    2249050.5    789933.31    3038983.8    1954257.6 
   34300        8.575    13341.777     12004296      2319364    775653.66    3095017.6    1943907.3 
   34400          8.6    13127.491     12195421    2388845.5    763195.63    3152041.1    1933557.1 
   34500        8.625     12905.37     12375365    2460789.6    750282.18    3211071.8    1923206.8 
   34600         8.65    12686.999     12565027    2532614.4    737586.69    3270201.1    1912856.6 
   34700        8.675     12529.85     12784551    2602594.6    728450.46    3331045.1    1902506.3 
