LAMMPS (29 Sep 2021)
  using 1 OpenMP thread(s) per MPI task
Reading data file ...
  orthogonal box = (0.59641575 0.60318742 0.0000000) to (99.923675 99.916903 535.86400)
  3 by 2 by 16 MPI processor grid
  reading atoms ...
  444900 atoms
  reading velocities ...
  444900 velocities
  read_data CPU = 5.211 seconds
222450 atoms in group g_left
222450 atoms in group g_right

CITE-CITE-CITE-CITE-CITE-CITE-CITE-CITE-CITE-CITE-CITE-CITE-CITE

Your simulation uses code contributions which should be cited:
- @article{cjiang2012
The log file lists these citations in BibTeX format.

CITE-CITE-CITE-CITE-CITE-CITE-CITE-CITE-CITE-CITE-CITE-CITE-CITE

Neighbor list info ...
  update every 1 steps, delay 10 steps, check yes
  max neighbors/atom: 2000, page size: 100000
  master list distance cutoff = 8.28721
  ghost atom cutoff = 8.28721
  binsize = 4.143605, bins = 24 24 130
  3 neighbor lists, perpetual/occasional/extra = 3 0 0
  (1) pair eam/alloy, perpetual, skip from (3)
      attributes: half, newton on
      pair build: skip
      stencil: none
      bin: none
  (2) pair edip/multi, perpetual
      attributes: full, newton on
      pair build: full/bin/atomonly
      stencil: full/bin/3d
      bin: standard
  (3) neighbor class addition, perpetual, half/full from (2)
      attributes: half, newton on
      pair build: halffull/newton
      stencil: none
      bin: none
Setting up Verlet run ...
  Unit style    : metal
  Current step  : 0
  Time step     : 0.00025
Per MPI rank memory allocation (min/avg/max) = 10.31 | 12.50 | 16.39 Mbytes
Step Time Temp Press PotEng KinEng TotEng Volume 
       0            0    2095.7307    20994.856   -2213729.8    120520.67   -2093209.2    5286062.1 
     100        0.025    2095.6627    21440.727     -2213735    120516.76   -2093218.2    5281129.8 
     200         0.05    2096.0892    21263.468   -2213759.4    120541.29   -2093218.2    5276197.5 
     300        0.075    2095.4637    20931.694   -2213723.5    120505.32   -2093218.2    5271265.3 
     400          0.1    2095.8445    20463.347   -2213756.7    120527.22   -2093229.5      5266333 
     500        0.125    2095.7433    21206.537   -2213767.4     120521.4     -2093246    5261400.7 
     600         0.15    2095.1697    20881.277   -2213742.7    120488.41   -2093254.3    5256468.4 
     700        0.175    2094.9672    21332.308   -2213728.6    120476.76   -2093251.8    5251536.1 
     800          0.2    2095.3018    20933.142   -2213744.5       120496   -2093248.5    5246603.9 
     900        0.225      2095.45    20861.035   -2213757.2    120504.53   -2093252.7    5241671.6 
    1000         0.25    2094.9555    21235.949   -2213739.4    120476.09   -2093263.3    5236739.3 
    1100        0.275    2094.8711    21223.462   -2213745.1    120471.24   -2093273.9      5231807 
    1200          0.3    2094.5693    21274.438   -2213733.7    120453.88   -2093279.9    5226874.8 
    1300        0.325    2094.7588    20885.163   -2213748.1    120464.78   -2093283.3    5221942.5 
    1400         0.35     2094.529    21423.163   -2213741.9    120451.57   -2093290.3    5217010.2 
    1500        0.375    2094.4028    20415.033   -2213740.6    120444.31   -2093296.3    5212077.9 
    1600          0.4    2094.6842    21760.216   -2213755.3    120460.49   -2093294.8    5207145.6 
    1700        0.425    2094.4464      20854.1   -2213733.1    120446.81   -2093286.2    5202213.4 
    1800         0.45    2094.9214     21050.05   -2213753.5    120474.13   -2093279.3    5197281.1 
    1900        0.475    2094.3997    21176.042   -2213728.6    120444.13   -2093284.5    5192348.8 
    2000          0.5    2094.6989    21309.533   -2213753.2    120461.33   -2093291.9    5187416.5 
    2100        0.525    2094.6984    21276.302   -2213745.5    120461.31   -2093284.1    5182484.2 
    2200         0.55     2095.161    21188.876   -2213752.5    120487.91   -2093264.6      5177552 
    2300        0.575    2095.0313    20852.141   -2213733.3    120480.45   -2093252.8    5172619.7 
    2400          0.6    2094.9773     21630.39   -2213732.1    120477.35   -2093254.7    5167687.4 
    2500        0.625    2095.3574    21236.802   -2213761.2     120499.2     -2093262    5162755.1 
    2600         0.65    2095.2903    21441.752   -2213758.6    120495.34   -2093263.2    5157822.8 
    2700        0.675    2094.7018    21266.427   -2213721.4     120461.5   -2093259.9    5152890.6 
    2800          0.7    2094.8424     21041.38   -2213733.9    120469.59   -2093264.3    5147958.3 
    2900        0.725    2095.3734    21246.585     -2213772    120500.12   -2093271.8      5143026 
    3000         0.75    2094.5166    21721.928   -2213720.5    120450.85   -2093269.6    5138093.7 
    3100        0.775     2094.993    21228.741   -2213736.4    120478.25   -2093258.1    5133161.4 
    3200          0.8    2095.1486    20683.609   -2213737.9     120487.2   -2093250.7    5128229.2 
    3300        0.825    2095.4344    21516.883   -2213752.5    120503.63   -2093248.8    5123296.9 
    3400         0.85    2094.9814    21902.765   -2213724.4    120477.58   -2093246.8    5118364.6 
    3500        0.875    2095.2883    21168.255   -2213745.2    120495.23     -2093250    5113432.3 
    3600          0.9     2095.375    20899.921     -2213767    120500.22   -2093266.8      5108500 
    3700        0.925    2094.8076    21559.258   -2213756.3    120467.58   -2093288.7    5103567.8 
    3800         0.95    2094.3753    21847.675     -2213736    120442.73   -2093293.3    5098635.5 
    3900        0.975    2094.7303    21411.779     -2213740    120463.14   -2093276.8    5093703.2 
    4000            1     2095.219    22011.384   -2213750.9    120491.24   -2093259.6    5088770.9 
    4100        1.025    2095.6387     21893.86   -2213771.9    120515.38   -2093256.5    5083838.6 
    4200         1.05    2094.6402    21777.431   -2213720.2    120457.96   -2093262.2    5078906.4 
    4300        1.075    2094.8304     22085.43   -2213734.7     120468.9   -2093265.8    5073974.1 
    4400          1.1    2095.1973    22218.768   -2213753.3       120490   -2093263.3    5069041.8 
    4500        1.125     2095.781    21366.938   -2213783.9    120523.56   -2093260.3    5064109.5 
    4600         1.15     2099.365    21332.759   -2213990.1    120729.67   -2093260.4    5059177.2 
    4700        1.175    2103.5138    21627.433   -2214222.5    120968.26   -2093254.2      5054245 
    4800          1.2    2114.7698    21763.403   -2214852.6    121615.57     -2093237    5049312.7 
    4900        1.225     2115.994    21471.966   -2214905.7    121685.97   -2093219.7    5044380.4 
    5000         1.25    2098.7445     22357.29   -2213904.8    120693.99   -2093210.8    5039448.1 
    5100        1.275    2089.2276    25252.468     -2213358    120146.69   -2093211.3    5034515.8 
    5200          1.3    2075.3873     27339.45     -2212560    119350.77   -2093209.2    5029583.6 
    5300        1.325      2066.28    29432.058   -2212027.3    118827.03   -2093200.3    5024651.3 
    5400         1.35      2055.94    30752.635   -2211426.8     118232.4   -2093194.4      5019719 
    5500        1.375    2044.9697    32107.423   -2210797.8    117601.52   -2093196.3    5014786.7 
    5600          1.4    2034.6544    34723.815     -2210212    117008.32   -2093203.7    5009854.5 
    5700        1.425    2021.7661    36424.577   -2209472.8    116267.14   -2093205.7    5004922.2 
    5800         1.45    2011.7515    38284.222   -2208890.1    115691.22   -2093198.9    4999989.9 
    5900        1.475     1998.134    40322.908     -2208096    114908.11   -2093187.9    4995057.6 
    6000          1.5    1987.2431    42163.538   -2207457.7     114281.8   -2093175.9    4990125.3 
    6100        1.525    1973.3423    44876.076     -2206649     113482.4   -2093166.6    4985193.1 
    6200         1.55    1962.5348    46432.852   -2206023.3    112860.88   -2093162.4    4980260.8 
    6300        1.575    1949.2056    48730.284   -2205256.7    112094.35   -2093162.4    4975328.5 
    6400          1.6    1938.2608    50620.214   -2204629.9    111464.94   -2093164.9    4970396.2 
    6500        1.625    1924.1158    52722.003   -2203820.4    110651.49   -2093168.9    4965463.9 
    6600         1.65    1913.6288    54745.069     -2203218    110048.41   -2093169.6    4960531.7 
    6700        1.675    1899.8426    56806.599   -2202423.4     109255.6   -2093167.8    4955599.4 
    6800          1.7    1889.0203    59049.318   -2201804.3    108633.23   -2093171.1    4950667.1 
    6900        1.725    1875.1707    61160.353   -2201017.6    107836.77   -2093180.8    4945734.8 
    7000         1.75    1863.6969    63051.372   -2200365.1    107176.94   -2093188.2    4940802.5 
    7100        1.775    1857.4135    65232.706     -2199998     106815.6   -2093182.4    4935870.3 
    7200          1.8    1859.4287    65637.397   -2200096.8    106931.49   -2093165.4      4930938 
    7300        1.825    1856.1733    65713.647   -2199896.1    106744.27   -2093151.8    4926005.7 
    7400         1.85    1851.9818    65312.086   -2199654.7    106503.23   -2093151.5    4921073.4 
    7500        1.875    1852.5293    66726.296   -2199690.1    106534.72   -2093155.4    4916141.1 
    7600          1.9    1848.1286    67098.737     -2199435    106281.64   -2093153.4    4911208.9 
    7700        1.925    1848.6136    67308.992   -2199458.7    106309.53   -2093149.2    4906276.6 
    7800         1.95    1845.6709    67925.838   -2199290.6     106140.3   -2093150.3    4901344.3 
    7900        1.975    1844.4775    67914.361   -2199227.9    106071.68   -2093156.2      4896412 
    8000            2    1843.9031    68820.402   -2199199.5    106038.64   -2093160.8    4891479.7 
    8100        2.025    1840.1275    69771.279   -2198984.3    105821.52   -2093162.8    4886547.5 
    8200         2.05    1840.6099    70276.811   -2199010.9    105849.26   -2093161.6    4881615.2 
    8300        2.075    1837.1652     69986.39   -2198811.9    105651.16   -2093160.8    4876682.9 
    8400          2.1    1838.0226    70801.594   -2198860.9    105700.47   -2093160.4    4871750.6 
    8500        2.125    1835.3828    71614.363   -2198707.4    105548.66   -2093158.8    4866818.3 
    8600         2.15    1835.4444    72863.389     -2198713     105552.2   -2093160.8    4861886.1 
    8700        2.175    1829.0794    73454.657   -2198357.9    105186.17   -2093171.7    4856953.8 
    8800          2.2    1824.9828    74687.461   -2198137.2    104950.58   -2093186.6    4852021.5 
    8900        2.225    1819.3502    76220.464   -2197822.9    104626.66   -2093196.3    4847089.2 
    9000         2.25    1811.8327     77446.77   -2197391.7    104194.35   -2093197.3    4842156.9 
    9100        2.275    1800.8096    78640.995   -2196753.6    103560.43   -2093193.2    4837224.7 
    9200          2.3    1787.8359    80041.986   -2196004.9    102814.35   -2093190.5    4832292.4 
    9300        2.325    1775.0562    82168.678   -2195273.2    102079.41   -2093193.8    4827360.1 
    9400         2.35    1760.2502    83422.856   -2194428.3    101227.95   -2093200.3    4822427.8 
    9500        2.375    1745.9292     84879.08   -2193614.1    100404.39   -2093209.7    4817495.5 
    9600          2.4    1732.0988    86218.421   -2192828.4    99609.033   -2093219.4    4812563.3 
    9700        2.425    1718.4533    87667.432   -2192051.1    98824.312   -2093226.8      4807631 
    9800         2.45    1703.5581    89396.088   -2191197.1    97967.721   -2093229.4    4802698.7 
    9900        2.475    1691.1811    91686.765   -2190482.3    97255.951   -2093226.3    4797766.4 
   10000          2.5    1675.3825    92537.001   -2189566.3    96347.411   -2093218.9    4792834.2 
   10100        2.525     1660.274    94572.758   -2188689.7    95478.552   -2093211.1    4787901.9 
   10200         2.55    1645.8073    96839.438   -2187855.8    94646.606   -2093209.2    4782969.6 
   10300        2.575    1629.4776    97825.111   -2186920.4    93707.525   -2093212.9    4778037.3 
   10400          2.6    1614.2407    100135.98     -2186047    92831.286   -2093215.7      4773105 
   10500        2.625    1597.8219    101835.63   -2185097.3    91887.076   -2093210.2    4768172.8 
   10600         2.65    1583.0602    104104.39   -2184240.7    91038.166   -2093202.6    4763240.5 
   10700        2.675     1571.219    105981.75   -2183561.4    90357.207   -2093204.2    4758308.2 
   10800          2.7    1559.4184    107725.55   -2182894.5    89678.579   -2093215.9    4753375.9 
   10900        2.725    1547.9508    109531.94   -2182243.3    89019.103   -2093224.2    4748443.6 
   11000         2.75    1538.3995    111332.33   -2181687.4    88469.833   -2093217.6    4743511.4 
   11100        2.775    1528.7668     114154.3   -2181122.8    87915.876     -2093207    4738579.1 
   11200          2.8    1519.2664    115476.77   -2180576.9    87369.528   -2093207.4    4733646.8 
   11300        2.825    1510.2332     118125.2   -2180061.8     86850.05   -2093211.8    4728714.5 
   11400         2.85    1502.6206    119698.56   -2179620.3    86412.269     -2093208    4723782.2 
   11500        2.875    1494.2124    121944.36   -2179130.6    85928.731   -2093201.9      4718850 
   11600          2.9    1487.4512    125496.07   -2178742.4    85539.912   -2093202.5    4713917.7 
   11700        2.925    1478.2735    127227.54   -2178222.9    85012.125   -2093210.8    4708985.4 
   11800         2.95    1469.8783    130478.59   -2177754.5    84529.334   -2093225.1    4704053.1 
   11900        2.975    1462.7154    132569.06   -2177355.3    84117.413   -2093237.9    4699120.8 
   12000            3    1454.6702    135179.57     -2176896    83654.752   -2093241.2    4694188.6 
   12100        3.025    1446.8348    137842.84   -2176437.4    83204.154   -2093233.3    4689256.3 
   12200         3.05    1438.3532    139941.89   -2175940.3    82716.398   -2093223.9      4684324 
   12300        3.075    1428.4384    142634.03   -2175370.6     82146.22   -2093224.4    4679391.7 
   12400          3.1    1418.7381    144921.03   -2174816.8    81588.376   -2093228.4    4674459.4 
   12500        3.125    1408.3367    146725.76   -2174215.8    80990.215   -2093225.6    4669527.2 
   12600         3.15    1398.3841    149205.89   -2173636.3    80417.866   -2093218.5    4664594.9 
   12700        3.175    1387.8435    152685.93   -2173027.6    79811.702   -2093215.9    4659662.6 
   12800          3.2    1376.3252    154024.25   -2172367.8    79149.312   -2093218.5    4654730.3 
   12900        3.225    1366.0663    156262.26   -2171778.1    78559.344   -2093218.7      4649798 
   13000         3.25    1357.5236    158202.43   -2171281.4    78068.074   -2093213.3    4644865.8 
   13100        3.275    1351.0346    159562.93   -2170898.4    77694.907   -2093203.5    4639933.5 
   13200          3.3    1344.5035    160554.99   -2170507.9    77319.315   -2093188.6    4635001.2 
   13300        3.325    1335.4792    161769.05   -2169974.4    76800.351     -2093174    4630068.9 
   13400         3.35    1329.1577    162968.93   -2169606.1    76436.814   -2093169.3    4625136.6 
   13500        3.375    1322.5272    165214.48   -2169231.8    76055.508   -2093176.3    4620204.4 
   13600          3.4    1315.1906    166505.41   -2168817.4    75633.599   -2093183.8    4615272.1 
   13700        3.425     1308.313    167921.56   -2168415.5    75238.083   -2093177.5    4610339.8 
   13800         3.45    1301.9198    169491.18   -2168034.7    74870.427   -2093164.3    4605407.5 
   13900        3.475    1294.8504    170583.48   -2167622.6    74463.881   -2093158.7    4600475.2 
   14000          3.5    1289.1361    171596.17   -2167300.8    74135.264   -2093165.5      4595543 
   14100        3.525    1284.4824    172789.81   -2167040.6    73867.638     -2093173    4590610.7 
   14200         3.55    1280.8792    174117.77   -2166830.2    73660.426   -2093169.8    4585678.4 
   14300        3.575    1276.4093    176338.49     -2166565    73403.375   -2093161.6    4580746.1 
   14400          3.6    1272.8864    178292.64   -2166356.2    73200.783   -2093155.4    4575813.9 
   14500        3.625    1265.3687     181516.8   -2165923.8    72768.453   -2093155.4    4570881.6 
   14600         3.65    1257.2657    184500.18   -2165464.1    72302.473   -2093161.6    4565949.3 
   14700        3.675    1248.6923    188266.42   -2164978.8    71809.436   -2093169.4      4561017 
   14800          3.7    1237.9399    192085.56   -2164364.7    71191.087   -2093173.6    4556084.7 
   14900        3.725    1226.1634    194259.58     -2163686    70513.851   -2093172.2    4551152.5 
   15000         3.75    1213.6226    198051.34   -2162957.1    69792.653   -2093164.4    4546220.2 
   15100        3.775    1201.2073    202063.76   -2162233.5    69078.682   -2093154.8    4541287.9 
   15200          3.8     1188.031    205487.91   -2161469.8    68320.942   -2093148.9    4536355.6 
   15300        3.825    1173.6742    209480.13   -2160645.7    67495.315   -2093150.4    4531423.3 
   15400         3.85    1159.3959    213190.98   -2159829.5    66674.204   -2093155.3    4526491.1 
   15500        3.875    1144.0221    217530.06   -2158947.9    65790.089   -2093157.8    4521558.8 
   15600          3.9    1127.0554    219824.08     -2157972    64814.371   -2093157.6    4516626.5 
   15700        3.925    1108.3621    223956.49   -2156894.1    63739.365   -2093154.8    4511694.2 
   15800         3.95    1090.0757    228066.23   -2155838.5    62687.754   -2093150.8    4506761.9 
   15900        3.975    1069.2028    231036.86   -2154640.9    61487.402   -2093153.5    4501829.7 
   16000            4     1048.843    233385.29   -2153479.6    60316.559     -2093163    4496897.4 
   16100        4.025    1029.1209     235770.5   -2152353.3    59182.388   -2093170.9    4491965.1 
   16200         4.05    1010.2228    236277.19   -2151272.2    58095.599   -2093176.6    4487032.8 
   16300        4.075    993.22048    238005.11   -2150290.9    57117.835     -2093173    4482100.5 
   16400          4.1    978.62008    239102.14   -2149441.1    56278.199   -2093162.9    4477168.3 
   16500        4.125    967.48589    240308.75   -2148794.6    55637.897   -2093156.7      4472236 
   16600         4.15    956.68323    242155.41     -2148177    55016.661   -2093160.4    4467303.7 
   16700        4.175     947.7558    243293.51   -2147672.6    54503.265   -2093169.3    4462371.4 
   16800          4.2    939.76436    244788.19   -2147218.8    54043.696   -2093175.1    4457439.1 
   16900        4.225    933.54229    245984.62   -2146866.7    53685.879   -2093180.8    4452506.9 
   17000         4.25    927.95497    247200.72     -2146554    53364.565   -2093189.4    4447574.6 
   17100        4.275    924.34133    249015.06     -2146356    53156.753   -2093199.2    4442642.3 
   17200          4.3    923.04421    251217.04   -2146290.4    53082.158   -2093208.2      4437710 
   17300        4.325    921.64469     253594.5   -2146218.2    53001.675   -2093216.5    4432777.7 
   17400         4.35    920.74723    255010.94   -2146166.8    52950.064   -2093216.7    4427845.5 
   17500        4.375    922.12879    258339.47   -2146244.6    53029.515     -2093215    4422913.2 
   17600          4.4    921.83849    260058.55   -2146236.6     53012.82   -2093223.8    4417980.9 
   17700        4.425    920.73733    262912.82   -2146180.9    52949.495   -2093231.4    4413048.6 
   17800         4.45    920.04691    264339.94   -2146138.1     52909.79   -2093228.3    4408116.3 
   17900        4.475    917.09261     267377.2   -2145960.9    52739.895     -2093221    4403184.1 
   18000          4.5    912.06016    268787.33   -2145673.2     52450.49   -2093222.7    4398251.8 
   18100        4.525    906.13956    271030.66     -2145341     52110.01     -2093231    4393319.5 
   18200         4.55    896.41723    272716.76   -2144779.9    51550.901     -2093229    4388387.2 
   18300        4.575    887.22782     273923.4   -2144238.2     51022.44   -2093215.8    4383454.9 
   18400          4.6    875.55764    275621.03   -2143559.7    50351.314   -2093208.3    4378522.7 
   18500        4.625    861.08696    277820.79   -2142733.9    49519.138   -2093214.7    4373590.4 
   18600         4.65    845.37747    280442.56   -2141838.4    48615.722   -2093222.7    4368658.1 
   18700        4.675    827.41242    281707.85   -2140806.7    47582.593   -2093224.1    4363725.8 
   18800          4.7    808.50501    284580.48   -2139721.8    46495.271   -2093226.6    4358793.5 
   18900        4.725    787.15437    286699.41   -2138498.4    45267.444   -2093230.9    4353861.3 
   19000         4.75    765.85983    289484.84   -2137275.8    44042.844     -2093233      4348929 
   19100        4.775    745.53984    292163.23   -2136103.7    42874.288   -2093229.4    4343996.7 
   19200          4.8    726.58095    295677.94   -2135000.4    41784.006   -2093216.4    4339064.4 
   19300        4.825    707.09551    299341.92   -2133856.5    40663.443     -2093193    4334132.2 
   19400         4.85    690.99019    302429.34   -2132881.1    39737.263   -2093143.8    4329199.9 
   19500        4.875    677.22201    305789.85     -2132003    38945.486   -2093057.5    4324267.6 
   19600          4.9    664.06199    308637.68   -2131116.6    38188.684   -2092927.9    4319335.3 
   19700        4.925    654.00882    312151.38   -2130344.2    37610.549   -2092733.6      4314403 
   19800         4.95    646.19888    315351.85     -2129604    37161.417   -2092442.6    4309470.8 
   19900        4.975    642.40659    319169.45   -2128960.8    36943.331   -2092017.4    4304538.5 
   20000            5    641.07569    322181.25   -2128312.8    36866.795     -2091446    4299606.2 
   20100        5.025    643.59239    324187.55   -2127774.2    37011.524   -2090762.6    4294673.9 
   20200         5.05    648.35567    327036.06     -2127312    37285.449   -2090026.6    4289741.6 
   20300        5.075    655.12823    328604.03   -2126939.3    37674.924   -2089264.3    4284809.4 
   20400          5.1    662.58515     330183.5   -2126585.3    38103.754   -2088481.5    4279877.1 
   20500        5.125    671.97623    332126.54   -2126323.7    38643.813   -2087679.9    4274944.8 
   20600         5.15    683.13094    334064.32   -2126136.8    39285.295   -2086851.5    4270012.5 
   20700        5.175    694.10682    334646.25   -2125896.6    39916.493   -2085980.1    4265080.2 
   20800          5.2    705.79346    336307.46   -2125656.7    40588.565   -2085068.2      4260148 
   20900        5.225    716.02246     336891.7   -2125312.6    41176.811   -2084135.7    4255215.7 
   21000         5.25    724.77223    339156.64   -2124868.6    41679.991   -2083188.7    4250283.4 
   21100        5.275    731.58705    340825.62   -2124279.5    42071.896   -2082207.6    4245351.1 
   21200          5.3     737.7415    344096.86   -2123614.1    42425.824   -2081188.3    4240418.8 
   21300        5.325    740.91455    347548.64   -2122750.2    42608.298   -2080141.9    4235486.6 
   21400         5.35    741.01214    351554.28   -2121691.3    42613.911   -2079077.4    4230554.3 
   21500        5.375    741.62313    355657.23   -2120634.5    42649.047   -2077985.4      4225622 
   21600          5.4    740.54478    360188.32   -2119449.4    42587.034   -2076862.4    4220689.7 
   21700        5.425     741.8471    364465.05   -2118378.1    42661.928   -2075716.2    4215757.4 
   21800         5.45    744.52325    369676.32   -2117358.1    42815.827   -2074542.2    4210825.2 
   21900        5.475    746.80785    375010.65     -2116279    42947.209   -2073331.7    4205892.9 
   22000          5.5    750.97278    380019.52   -2115278.9    43186.724   -2072092.2    4200960.6 
   22100        5.525    754.55539    384470.57   -2114221.8    43392.752   -2070829.1    4196028.3 
   22200         5.55    756.73594    388577.25   -2113044.9     43518.15   -2069526.8      4191096 
   22300        5.575     761.6329     393233.4   -2111978.7    43799.763     -2068179    4186163.8 
   22400          5.6    764.22853    397692.33   -2110748.2    43949.032   -2066799.2    4181231.5 
   22500        5.625    767.70164    401473.52   -2109549.8    44148.763     -2065401    4176299.2 
   22600         5.65     772.0368       404934   -2108379.9    44398.068   -2063981.8    4171366.9 
   22700        5.675    776.07618    408089.16   -2107160.2    44630.363   -2062529.8    4166434.6 
   22800          5.7    779.80199    411171.26     -2105883    44844.626   -2061038.4    4161502.4 
   22900        5.725    784.37302    415409.17   -2104620.7    45107.496   -2059513.2    4156570.1 
   23000         5.75    789.25066    418514.26   -2103349.1    45387.997   -2057961.1    4151637.8 
   23100        5.775    796.07148    421521.07   -2102167.6    45780.247   -2056387.4    4146705.5 
   23200          5.8    802.08453    425083.07   -2100911.4    46126.044   -2054785.3    4141773.2 
   23300        5.825    807.23515    430083.06   -2099566.8    46422.244   -2053144.6      4136841 
   23400         5.85    808.57088    433764.96   -2097955.8    46499.059   -2051456.8    4131908.7 
   23500        5.875    811.14934     439039.4   -2096387.2    46647.341   -2049739.9    4126976.4 
   23600          5.9    811.29782     444717.4   -2094675.3    46655.879   -2048019.4    4122044.1 
   23700        5.925    809.04864    449986.36   -2092826.1    46526.534   -2046299.5    4117111.9 
   23800         5.95    807.34277    455341.41   -2091014.6    46428.433   -2044586.1    4112179.6 
   23900        5.975    802.38713    462277.11   -2089031.8    46143.446   -2042888.4    4107247.3 
   24000            6    794.59412    468027.03   -2086915.1    45695.287   -2041219.8      4102315 
   24100        6.025    785.65975     474053.3   -2084742.1    45181.492   -2039560.7    4097382.7 
   24200         6.05    778.23353    481808.17     -2082614    44754.428   -2037859.5    4092450.5 
   24300        6.075    769.03541    487831.87   -2080335.2    44225.465   -2036109.7    4087518.2 
   24400          6.1     759.5016    494268.26     -2078009    43677.197   -2034331.8    4082585.9 
   24500        6.125    754.03615    500654.64   -2075885.9    43362.892     -2032523    4077653.6 
   24600         6.15    745.71015    505354.41   -2073542.1    42884.082     -2030658    4072721.3 
   24700        6.175    742.29931    512104.12   -2071418.6    42687.933   -2028730.6    4067789.1 
   24800          6.2    739.67394    518051.41   -2069268.5    42536.954   -2026731.5    4062856.8 
   24900        6.225    739.16034    523633.25   -2067112.9    42507.418   -2024605.5    4057924.5 
   25000         6.25    742.67279    529279.88   -2064973.2    42709.411   -2022263.8    4052992.2 
   25100        6.275    751.73078    535219.51   -2062901.2    43230.315   -2019670.9    4048059.9 
   25200          6.3    764.51944    540096.92     -2060799    43965.762   -2016833.3    4043127.7 
   25300        6.325    781.07494    543853.59   -2058665.3    44917.831   -2013747.5    4038195.4 
   25400         6.35    804.18599    548817.87   -2056661.4    46246.894   -2010414.5    4033263.1 
   25500        6.375    828.63365    554170.47   -2054544.9    47652.823   -2006892.1    4028330.8 
   25600          6.4     856.2935    559058.45   -2052516.2    49243.477   -2003272.7    4023398.5 
   25700        6.425    884.58138    563202.52   -2050466.3    50870.249     -1999596    4018466.3 
   25800         6.45    915.87096    567897.28   -2048505.3    52669.641   -1995835.6      4013534 
   25900        6.475    949.72092     572374.5   -2046605.5    54616.275   -1991989.2    4008601.7 
   26000          6.5    985.21026    576049.09   -2044756.5    56657.185   -1988099.3    4003669.4 
   26100        6.525    1018.5185     579656.5   -2042759.7    58572.668     -1984187    3998737.1 
   26200         6.55    1054.2505    584681.92   -2040862.2    60627.531   -1980234.7    3993804.9 
   26300        6.575     1089.805    589395.57   -2038911.1    62672.192   -1976238.9    3988872.6 
   26400          6.6    1126.7673    593764.21     -2037010    64797.803   -1972212.2    3983940.3 
   26500        6.625    1161.9408     597977.2   -2034966.2    66820.555   -1968145.7      3979008 
   26600         6.65     1198.977    601662.76   -2032975.4    68950.419     -1964025    3974075.7 
   26700        6.675    1237.6446     605752.7   -2031060.3    71174.104   -1959886.2    3969143.5 
   26800          6.7    1277.0434    612076.64   -2029228.9    73439.842     -1955789    3964211.2 
   26900        6.725    1314.6469     617799.3   -2027365.1    75602.333   -1951762.8    3959278.9 
   27000         6.75     1352.487     626682.7     -2025584    77778.427   -1947805.6    3954346.6 
   27100        6.775     1385.696    634393.53   -2023611.7    79688.201   -1943923.5    3949414.3 
   27200          6.8    1419.0246     641412.7   -2021755.4    81604.852   -1940150.6    3944482.1 
   27300        6.825    1451.4396    651253.21   -2019975.2    83468.965   -1936506.3    3939549.8 
   27400         6.85     1479.405    659946.16   -2018047.3    85077.193   -1932970.1    3934617.5 
   27500        6.875    1507.3991    666681.58   -2016219.2    86687.071   -1929532.2    3929685.2 
   27600          6.9    1535.5069    675178.99   -2014512.1    88303.487   -1926208.6    3924752.9 
   27700        6.925    1559.1544    684711.44   -2012649.7    89663.397   -1922986.3    3919820.7 
   27800         6.95    1583.0059    689844.44   -2010854.9    91035.043   -1919819.8    3914888.4 
   27900        6.975    1606.6014    696985.83   -2009091.6    92391.965   -1916699.6    3909956.1 
   28000            7    1631.2671    702427.17   -2007447.4    93810.432   -1913636.9    3905023.8 
   28100        7.025     1655.031    705987.24   -2005824.4    95177.041   -1910647.4    3900091.6 
   28200         7.05    1678.9486    710913.06   -2004264.4    96552.486   -1907711.9    3895159.3 
   28300        7.075    1702.8321     714735.4   -2002734.4    97925.975   -1904808.5      3890227 
   28400          7.1    1728.8878    716699.78     -2001349    99424.379   -1901924.6    3885294.7 
   28500        7.125     1750.573    720491.96     -1999736    100671.45   -1899064.5    3880362.4 
   28600         7.15    1775.4294    724014.68   -1998294.1    102100.88   -1896193.2    3875430.2 
   28700        7.175    1798.8885    727540.46   -1996717.6    103449.96   -1893267.7    3870497.9 
   28800          7.2    1820.4924    732447.18   -1994970.6    104692.35   -1890278.2    3865565.6 
   28900        7.225    1844.0092    737175.93   -1993326.8    106044.75     -1887282    3860633.3 
   29000         7.25    1867.4364    740793.74   -1991661.4    107391.99   -1884269.4      3855701 
   29100        7.275    1888.9793    746051.11   -1989883.4    108630.87   -1881252.5    3850768.8 
   29200          7.3    1908.8483    751200.72   -1988018.9    109773.49   -1878245.4    3845836.5 
   29300        7.325    1926.6026    756195.56   -1986069.8     110794.5   -1875275.3    3840904.2 
   29400         7.35    1941.6314     761650.4   -1983951.3    111658.77   -1872292.6    3835971.9 
   29500        7.375    1956.3277     767022.2   -1981778.3    112503.92   -1869274.4    3831039.6 
   29600          7.4    1970.6129    772058.73   -1979530.7    113325.43   -1866205.2    3826107.4 
   29700        7.425    1983.0144    779035.29   -1977181.2    114038.62   -1863142.6    3821175.1 
   29800         7.45     1997.657     783556.1   -1974943.7    114880.68     -1860063    3816242.8 
   29900        7.475    2009.9105    790301.86   -1972529.6    115585.35   -1856944.3    3811310.5 
   30000          7.5    2022.3095    795871.08   -1970075.1    116298.38   -1853776.8    3806378.2 
   30100        7.525    2036.1923    801365.38   -1967690.9    117096.75   -1850594.1      3801446 
   30200         7.55    2050.8723    808803.03   -1965345.5    117940.97   -1847404.5    3796513.7 
   30300        7.575    2066.8072    814862.43   -1963065.5    118857.35   -1844208.2    3791581.4 
   30400          7.6    2081.9039    823198.15   -1960786.4    119725.52   -1841060.9    3786649.1 
   30500        7.625    2096.0118    830762.46   -1958480.3    120536.84   -1837943.4    3781716.8 
   30600         7.65    2114.1208    837217.07   -1956448.4    121578.24   -1834870.1    3776784.6 
   30700        7.675    2131.3881     843772.3   -1954413.3    122571.25     -1831842    3771852.3 
   30800          7.7    2148.3893    850821.68   -1952444.5    123548.94   -1828895.6      3766920 
   30900        7.725    2163.4048    856068.58   -1950455.7    124412.45   -1826043.3    3761987.7 
   31000         7.75    2180.7208    862916.62     -1948683    125408.26   -1823274.8    3757055.4 
   31100        7.775    2200.2367    866488.06   -1947118.1    126530.57   -1820587.5    3752123.2 
   31200          7.8    2216.5744    871913.04   -1945443.2    127470.11   -1817973.1    3747190.9 
   31300        7.825    2237.1969    876826.25   -1944088.1    128656.07   -1815432.1    3742258.6 
   31400         7.85    2255.3225     878998.3   -1942643.5    129698.43   -1812945.1    3737326.3 
   31500        7.875    2270.5284    883559.74   -1941060.3    130572.89   -1810487.4      3732394 
   31600          7.9    2284.7996    886589.28   -1939483.8    131393.59   -1808090.2    3727461.8 
   31700        7.925    2295.6326    888418.18   -1937769.4    132016.57   -1805752.8    3722529.5 
   31800         7.95    2307.2157    892384.34   -1936154.7    132682.69     -1803472    3717597.2 
   31900        7.975    2317.3564    894794.13   -1934477.8    133265.86     -1801212    3712664.9 
   32000            8    2325.1088    899286.72   -1932693.7    133711.68   -1798982.1    3707732.6 
   32100        8.025    2330.6448    903043.77     -1930814    134030.04   -1796783.9    3702800.4 
   32200         8.05    2336.8404    906575.36   -1928992.8    134386.34   -1794606.5    3697868.1 
   32300        8.075    2341.4592    911199.48     -1927098    134651.96     -1792446    3692935.8 
   32400          8.1    2343.1949    917442.33   -1925070.9    134751.77   -1790319.1    3688003.5 
   32500        8.125    2349.9513    920579.81   -1923338.8    135140.32   -1788198.5    3683071.3 
   32600         8.15    2352.8544     926247.4     -1921355    135307.26   -1786047.7      3678139 
   32700        8.175    2355.2884    931036.91   -1919302.9    135447.24   -1783855.7    3673206.7 
   32800          8.2    2356.7311    936004.53   -1917168.5    135530.21   -1781638.3    3668274.4 
   32900        8.225    2357.0524    942250.23   -1914956.6    135548.68     -1779408    3663342.1 
   33000         8.25    2359.7108     949184.5     -1912839    135701.57   -1777137.4    3658409.9 
   33100        8.275     2360.677    953379.33   -1910542.9    135757.13   -1774785.8    3653477.6 
   33200          8.3    2361.6904    958565.28   -1908163.8     135815.4   -1772348.4    3648545.3 
   33300        8.325    2357.6815    963723.17   -1905407.3    135584.86   -1769822.4      3643613 
   33400         8.35    2356.3832    972338.44   -1902678.7     135510.2   -1767168.5    3638680.7 
   33500        8.375    2353.8034    977545.48   -1899707.4    135361.84   -1764345.5    3633748.5 
   33600          8.4     2349.599    985075.94   -1896474.3    135120.06   -1761354.2    3628816.2 
   33700        8.425    2345.3959    991377.16   -1893104.9    134878.34   -1758226.6    3623883.9 
   33800         8.45    2337.6306    998036.85   -1889447.9    134431.78   -1755016.1    3618951.6 
   33900        8.475    2327.4471      1005426     -1885601    133846.15   -1751754.8    3614019.3 
   34000          8.5    2318.9993    1012877.4   -1881795.4    133360.34   -1748435.1    3609087.1 
   34100        8.525    2306.2668    1021244.5   -1877671.7    132628.12   -1745043.6    3604154.8 
   34200         8.55    2294.9417    1028621.8   -1873564.9    131976.84     -1741588    3599222.5 
   34300        8.575     2282.038    1034088.4   -1869310.8    131234.78   -1738076.1    3594290.2 
   34400          8.6     2269.367    1040362.3   -1865026.5     130506.1   -1734520.4    3589357.9 
   34500        8.625    2259.1002    1046672.6   -1860848.7    129915.68     -1730933    3584425.7 
   34600         8.65    2247.9733    1051711.4   -1856581.7    129275.79   -1727305.9    3579493.4 
   34700        8.675     2239.492    1056164.1   -1852432.8    128788.05   -1723644.7    3574561.1 
   34800          8.7    2233.5316    1059280.6   -1848422.5    128445.28   -1719977.2    3569628.8 
   34900        8.725    2225.1689    1063441.5   -1844280.7    127964.36   -1716316.3    3564696.5 
   35000         8.75    2221.2163    1067846.1   -1840402.6    127737.06   -1712665.6    3559764.3 
   35100        8.775    2219.6464    1069551.1   -1836692.3    127646.78   -1709045.5      3554832 
   35200          8.8    2214.1707    1072679.3   -1832823.5    127331.89   -1705491.6    3549899.7 
   35300        8.825    2210.5937    1076601.2   -1829150.6    127126.18   -1702024.4    3544967.4 
   35400         8.85    2205.9973    1083474.6   -1825487.9    126861.85   -1698626.1    3540035.1 
   35500        8.875     2198.297    1085130.3   -1821693.6    126419.02   -1695274.6    3535102.9 
   35600          8.9    2190.8205    1094329.3   -1817975.5    125989.07   -1691986.5    3530170.6 
   35700        8.925    2177.6262    1104222.7   -1814015.4     125230.3   -1688785.1    3525238.3 
   35800         8.95    2163.5324    1113522.4   -1810082.4    124419.79   -1685662.6      3520306 
   35900        8.975    2148.9846    1122373.4   -1806177.8    123583.18   -1682594.6    3515373.7 
   36000            9    2136.0779    1132641.6     -1802414    122840.95     -1679573    3510441.5 
   36100        9.025    2122.2267    1142705.2   -1798656.6     122044.4   -1676612.2    3505509.2 
   36200         9.05    2104.2721    1151628.9   -1794728.8    121011.87     -1673717    3500576.9 
   36300        9.075    2094.4539    1165320.5   -1791295.7    120447.25   -1670848.5    3495644.6 
   36400          9.1    2082.8046    1176675.6   -1787766.4    119777.32   -1667989.1    3490712.3 
   36500        9.125     2073.962    1184458.1   -1784433.4    119268.81   -1665164.6    3485780.1 
   36600         9.15    2062.4051    1194636.6   -1781003.3    118604.19   -1662399.1    3480847.8 
   36700        9.175    2052.9275    1204087.5   -1777716.7    118059.16   -1659657.6    3475915.5 
   36800          9.2    2041.3353    1212546.1   -1774311.3    117392.52   -1656918.8    3470983.2 
   36900        9.225    2029.0192    1219953.6   -1770877.4    116684.25   -1654193.1    3466050.9 
   37000         9.25     2015.689    1227432.1     -1767400    115917.66   -1651482.3    3461118.7 
   37100        9.275    2003.7508    1234321.8   -1763969.9    115231.12   -1648738.7    3456186.4 
   37200          9.3     1984.056    1239170.7   -1760045.9    114098.52   -1645947.4    3451254.1 
   37300        9.325    1963.8559    1245383.7   -1756093.6    112936.86   -1643156.8    3446321.8 
   37400         9.35    1937.7927    1254046.8   -1751841.1    111438.02   -1640403.1    3441389.6 
   37500        9.375    1920.0785    1259388.9   -1748080.1    110419.32   -1637660.8    3436457.3 
   37600          9.4    1894.1381    1268517.7   -1743822.5    108927.54   -1634894.9      3431525 
   37700        9.425    1874.3278    1273874.7   -1739914.1     107788.3   -1632125.8    3426592.7 
   37800         9.45    1854.1593    1285033.8   -1736003.2    106628.45   -1629374.8    3421660.4 
   37900        9.475    1832.9983    1293213.4   -1732025.4    105411.53   -1626613.8    3416728.2 
   38000          9.5     1815.267    1301574.3   -1728205.1    104391.85   -1623813.3    3411795.9 
   38100        9.525    1800.1834    1310109.9   -1724517.5    103524.42     -1620993    3406863.6 
   38200         9.55    1781.6116    1316115.2   -1720611.9     102456.4   -1618155.5    3401931.3 
   38300        9.575    1764.4978    1324588.2   -1716730.1    101472.23   -1615257.9      3396999 
   38400          9.6    1749.0079    1334309.8   -1712824.9    100581.44   -1612243.5    3392066.8 
   38500        9.625    1734.0571    1341698.7   -1708849.3    99721.651   -1609127.6    3387134.5 
   38600         9.65    1717.1471    1351573.8   -1704692.1    98749.197   -1605942.9    3382202.2 
   38700        9.675    1702.7059    1361454.5   -1700611.4    97918.714   -1602692.6    3377269.9 
   38800          9.7    1683.7683      1371478     -1696195    96829.657   -1599365.3    3372337.6 
   38900        9.725    1668.5572      1379182   -1691932.4    95954.902   -1595977.5    3367405.4 
   39000         9.75    1650.3468    1390784.2   -1687504.9    94907.663   -1592597.2    3362473.1 
   39100        9.775    1636.7755    1401308.4     -1683392    94127.207   -1589264.8    3357540.8 
   39200          9.8    1621.6473    1411081.1   -1679216.3    93257.224     -1585959    3352608.5 
   39300        9.825    1607.6368    1420630.2   -1675142.6    92451.507   -1582691.1    3347676.2 
   39400         9.85    1592.2539    1430607.8   -1671025.8    91566.875     -1579459      3342744 
   39500        9.875    1581.4756    1440632.8   -1667223.4    90947.041   -1576276.4    3337811.7 
   39600          9.9    1568.8668      1451195   -1663349.8    90221.933   -1573127.8    3332879.4 
   39700        9.925    1552.9382    1462638.8   -1659327.6    89305.919   -1570021.7    3327947.1 
   39800         9.95    1539.0137    1469386.6   -1655453.2    88505.151   -1566948.1    3323014.8 
   39900        9.975    1522.1012    1480268.6   -1651392.5    87532.554     -1563860    3318082.6 
   40000           10    1506.8472    1489967.8   -1647388.2    86655.333   -1560732.9    3313150.3 
   40100       10.025     1490.927    1496214.1   -1643326.7    85739.795   -1557586.9      3308218 
   40200        10.05    1475.7137    1509771.7   -1639315.6    84864.913   -1554450.7    3303285.7 
   40300       10.075    1458.6524    1520290.2     -1635169    83883.757   -1551285.3    3298353.4 
   40400         10.1    1443.9871    1528424.4   -1631061.7     83040.39   -1548021.3    3293421.2 
   40500       10.125    1435.3527    1535563.5   -1627189.5    82543.845   -1544645.6    3288488.9 
   40600        10.15    1428.4056    1544999.5   -1623313.6    82144.335   -1541169.2    3283556.6 
   40700       10.175    1423.5033    1553455.9     -1619422    81862.413   -1537559.6    3278624.3 
   40800         10.2    1424.1315    1560749.9   -1615696.5    81898.541   -1533797.9      3273692 
   40900       10.225    1424.6192    1570134.4   -1611835.2    81926.584   -1529908.6    3268759.8 
   41000        10.25    1427.6535    1576818.2   -1608031.4    82101.082   -1525930.3    3263827.5 
   41100       10.275    1434.1876    1583973.2   -1604294.9    82476.844     -1521818    3258895.2 
   41200         10.3    1436.8509    1596143.2   -1600124.9    82630.004   -1517494.9    3253962.9 
   41300       10.325     1444.614      1603395   -1596039.6    83076.442   -1512963.2    3249030.6 
   41400        10.35    1452.0638    1609274.2   -1591760.5    83504.861   -1508255.6    3244098.4 
   41500       10.375    1456.0167    1620056.5   -1587087.8    83732.184   -1503355.6    3239166.1 
   41600         10.4    1463.4603    1627466.8   -1582382.8    84160.248   -1498222.6    3234233.8 
   41700       10.425    1471.2672    1635970.1   -1577498.5    84609.204   -1492889.3    3229301.5 
   41800        10.45    1481.7248    1642382.6   -1572620.2      85210.6   -1487409.6    3224369.3 
   41900       10.475    1485.4409    1654750.9   -1567184.2    85424.301   -1481759.9      3219437 
   42000         10.5     1500.388    1665378.9   -1562186.7     86283.88   -1475902.8    3214504.7 
   42100       10.525    1511.7768    1676167.5   -1556827.8    86938.823     -1469889    3209572.4 
   42200        10.55    1524.0281    1686519.5   -1551428.3    87643.364   -1463784.9    3204640.1 
   42300       10.575    1532.6058    1698018.9   -1545747.7    88136.647   -1457611.1    3199707.9 
   42400         10.6    1541.6005      1713066   -1539976.7    88653.914   -1451322.8    3194775.6 
   42500       10.625     1551.348    1724109.6   -1534147.7    89214.472   -1444933.2    3189843.3 
   42600        10.65    1557.4363      1740240   -1528028.1    89564.593   -1438463.5      3184911 
   42700       10.675    1564.9676    1755122.1   -1521899.8    89997.701   -1431902.1    3179978.7 
   42800         10.7    1572.6185    1772159.1   -1515635.4    90437.686   -1425197.7    3175046.5 
   42900       10.725      1580.02    1792990.6   -1509214.7    90863.331   -1418351.4    3170114.2 
   43000        10.75    1591.4271    1806570.1   -1502888.9    91519.325   -1411369.5    3165181.9 
   43100       10.775    1606.2999    1824847.7   -1496568.1    92374.628   -1404193.5    3160249.6 
   43200         10.8    1624.6789    1838964.2   -1490285.5    93431.559   -1396853.9    3155317.3 
   43300       10.825    1644.8285    1853730.3   -1483948.6     94590.32   -1389358.2    3150385.1 
   43400        10.85    1674.1367    1867991.4   -1477973.6    96275.769   -1381697.8    3145452.8 
   43500       10.875    1705.2341    1885848.4   -1471885.1    98064.106     -1373821    3140520.5 
   43600         10.9    1740.7412    1900118.1   -1465838.5    100106.04   -1365732.4    3135588.2 
   43700       10.925    1783.4557    1910777.7   -1460051.9    102562.45   -1357489.4    3130655.9 
   43800        10.95    1823.7139      1923783   -1454053.4    104877.61   -1349175.8    3125723.7 
   43900       10.975    1867.9911    1939811.4   -1448182.5    107423.89   -1340758.6    3120791.4 
   44000           11    1913.0503    1953471.5     -1442252    110015.14   -1332236.9    3115859.1 
   44100       11.025    1960.8046    1968502.8   -1436379.2    112761.38   -1323617.8    3110926.8 
   44200        11.05    2008.2831    1976490.3     -1430409    115491.76   -1314917.2    3105994.5 
   44300       11.075    2059.7512    1997412.3   -1424617.5    118451.58   -1306165.9    3101062.3 
   44400         11.1    2113.0122    2008959.3   -1418876.8    121514.49   -1297362.3      3096130 
   44500       11.125    2162.9084      2025430   -1412972.8    124383.91   -1288588.9    3091197.7 
   44600        11.15    2212.0635    2041012.9   -1407050.5     127210.7   -1279839.8    3086265.4 
   44700       11.175    2264.4227    2061994.4   -1401416.3    130221.76   -1271194.6    3081333.1 
   44800         11.2    2311.4336      2079347   -1395586.9    132925.25   -1262661.7    3076400.9 
   44900       11.225    2357.4776    2092699.1   -1389830.1    135573.13     -1254257    3071468.6 
   45000        11.25    2398.1677    2110110.8   -1383855.7    137913.13   -1245942.6    3066536.3 
   45100       11.275    2438.0451    2126611.6   -1377910.7    140206.39   -1237704.3      3061604 
   45200         11.3    2474.6596    2142017.9   -1371925.5    142312.01   -1229613.5    3056671.7 
   45300       11.325    2499.7029    2161240.3   -1365409.1    143752.19     -1221657    3051739.5 
   45400        11.35    2528.7237    2171139.5   -1359240.8    145421.11   -1213819.7    3046807.2 
   45500       11.375     2549.869    2188625.5   -1352682.8    146637.12   -1206045.7    3041874.9 
   45600         11.4    2568.5422    2202826.1   -1346028.1    147710.98   -1198317.1    3036942.6 
   45700       11.425    2593.6355    2216092.8   -1339812.8    149154.03   -1190658.7    3032010.3 
   45800        11.45    2609.1457    2230767.5   -1333150.1    150045.99   -1183104.1    3027078.1 
   45900       11.475    2624.6002    2244560.5   -1326523.6    150934.75   -1175588.9    3022145.8 
   46000         11.5     2646.137    2262244.6   -1320228.2    152173.28     -1168055    3017213.5 
   46100       11.525    2662.1271    2274205.7   -1313576.7    153092.83   -1160483.9    3012281.2 
   46200        11.55    2680.5556      2285201   -1307113.6    154152.61     -1152961      3007349 
   46300       11.575    2702.6095    2299436.6   -1300918.9    155420.88   -1145498.1    3002416.7 
   46400         11.6    2721.0397    2314059.3   -1294469.4    156480.76   -1137988.7    2997484.4 
   46500       11.625    2748.2697    2325138.6   -1288422.9    158046.69   -1130376.2    2992552.1 
   46600        11.65     2775.552    2337524.7   -1282285.7    159615.64     -1122670    2987619.8 
   46700       11.675    2805.9685      2348744     -1276287    161364.82   -1114922.2    2982687.6 
   46800         11.7    2834.6815      2364160   -1270181.8    163016.04   -1107165.8    2977755.3 
   46900       11.725    2863.0619    2376721.5   -1264021.7    164648.13   -1099373.6      2972823 
   47000        11.75    2895.3194    2390438.1   -1258103.3    166503.19   -1091600.1    2967890.7 
   47100       11.775    2922.9273      2405647   -1251956.2    168090.85   -1083865.4    2962958.4 
   47200         11.8    2951.2524    2412517.6   -1245883.1    169719.77   -1076163.3    2958026.2 
   47300       11.825    2982.3378    2427835.3   -1240005.3    171507.42   -1068497.9    2953093.9 
   47400        11.85    3007.0149    2436783.2   -1233765.5    172926.54     -1060839    2948161.6 
   47500       11.875    3033.4475    2449901.8   -1227666.4    174446.62   -1053219.8    2943229.3 
   47600         11.9    3055.0273    2467288.4   -1221329.4    175687.62   -1045641.8      2938297 
   47700       11.925    3074.3806    2474702.5   -1214883.1    176800.58   -1038082.5    2933364.8 
   47800        11.95    3085.5406    2490603.4   -1207915.7    177442.37   -1030473.3    2928432.5 
   47900       11.975    3097.9558    2501614.3   -1200965.7    178156.34   -1022809.4    2923500.2 
   48000           12     3102.478    2520162.8   -1193569.1     178416.4   -1015152.7    2918567.9 
   48100       12.025    3101.5122    2532693.9   -1185836.5    178360.86   -1007475.6    2913635.6 
   48200        12.05    3098.7953    2544871.9   -1177935.3    178204.62   -999730.69    2908703.4 
   48300       12.075    3099.0132    2556612.5   -1170089.6    178217.15   -991872.41    2903771.1 
   48400         12.1    3093.7696    2571066.1   -1161826.6     177915.6   -983911.01    2898838.8 
   48500       12.125     3090.104    2582578.9   -1153626.4     177704.8   -975921.64    2893906.5 
   48600        12.15      3081.88    2597731.3   -1145094.7    177231.86   -967862.85    2888974.2 
   48700       12.175    3080.8756    2610658.4   -1136830.2     177174.1   -959656.05      2884042 
   48800         12.2    3066.7322    2624701.6   -1127722.1    176360.74   -951361.32    2879109.7 
   48900       12.225      3069.25    2635675.9   -1119416.5    176505.54   -942911.01    2874177.4 
   49000        12.25    3062.9807    2649524.8   -1110486.1       176145   -934341.05    2869245.1 
   49100       12.275    3064.5037    2668016.2   -1101862.6    176232.59      -925630    2864312.8 
   49200         12.3     3060.072    2686336.1   -1092863.5    175977.73   -916885.81    2859380.6 
   49300       12.325    3067.8199    2698747.3   -1084505.2    176423.29   -908081.91    2854448.3 
   49400        12.35    3068.2599    2711679.5   -1075728.5     176448.6   -899279.94      2849516 
   49500       12.375    3079.5591    2730632.4   -1067587.1    177098.39    -890488.7    2844583.7 
   49600         12.4    3087.2812    2745853.5   -1059263.9    177542.47   -881721.39    2839651.4 
   49700       12.425    3094.8196    2764765.4     -1050996    177975.98   -873020.05    2834719.2 
   49800        12.45    3106.6771    2785145.1   -1042949.2    178657.89   -864291.33    2829786.9 
   49900       12.475    3110.3851    2802557.1     -1034461    178871.12   -855589.91    2824854.6 
   50000         12.5    3118.0902    2818336.8   -1026354.3    179314.22   -847040.11    2819922.3 
Loop time of 4044.5 on 96 procs for 50000 steps with 444900 atoms

Performance: 0.267 ns/day, 89.878 hours/ns, 12.362 timesteps/s
100.0% CPU use with 96 MPI tasks x 1 OpenMP threads

MPI task timing breakdown:
Section |  min time  |  avg time  |  max time  |%varavg| %total
---------------------------------------------------------------
Pair    | 1122       | 1852.4     | 3927.9     |2210.7 | 45.80
Neigh   | 13.547     | 16.538     | 21.482     |  56.4 |  0.41
Comm    | 35.281     | 782.93     | 2244.4     |2895.7 | 19.36
Output  | 9.3841     | 9.3849     | 9.4042     |   0.1 |  0.23
Modify  | 40.545     | 1379       | 2643.2     |3124.7 | 34.09
Other   |            | 4.284      |            |       |  0.11

Nlocal:        4634.38 ave        5069 max        4218 min
Histogram: 8 8 11 20 11 2 12 3 9 12
Nghost:        13248.5 ave       14254 max       12298 min
Histogram: 6 6 10 13 16 16 17 0 0 12
Neighs:         0.00000 ave           0 max           0 min
Histogram: 96 0 0 0 0 0 0 0 0 0
FullNghs:  1.45533e+06 ave 1.86572e+06 max 1.03397e+06 min
Histogram: 24 0 6 6 6 6 12 15 9 12

Total # of neighbors = 1.3971201e+08
Ave neighs/atom = 314.03015
Neighbor list builds = 506
Dangerous builds = 0
Total wall time: 1:07:30
