LAMMPS (29 Sep 2021)
  using 1 OpenMP thread(s) per MPI task
Reading restart file ...
  restart file = 29 Sep 2021, LAMMPS = 29 Sep 2021
  restoring atom style atomic from restart
  orthogonal box = (-0.39912682 -0.39878945 0.0000000) to (102.14714 101.64681 526.16902)
  3 by 2 by 16 MPI processor grid
  pair style hybrid/overlay stores no restart info
  444272 atoms
  read_restart CPU = 0.198 seconds
Resetting global fix info from restart file:
  fix style: npt, fix ID: 2

CITE-CITE-CITE-CITE-CITE-CITE-CITE-CITE-CITE-CITE-CITE-CITE-CITE

Your simulation uses code contributions which should be cited:
- @article{cjiang2012
The log file lists these citations in BibTeX format.

CITE-CITE-CITE-CITE-CITE-CITE-CITE-CITE-CITE-CITE-CITE-CITE-CITE

All restart file global fix info was re-assigned
Unused restart file peratom fix info:
  fix style: STORE, fix ID: spatialbins_COMPUTE_STORE
Neighbor list info ...
  update every 1 steps, delay 10 steps, check yes
  max neighbors/atom: 2000, page size: 100000
  master list distance cutoff = 8.28721
  ghost atom cutoff = 8.28721
  binsize = 4.143605, bins = 25 25 127
  3 neighbor lists, perpetual/occasional/extra = 3 0 0
  (1) pair eam/alloy, perpetual, skip from (3)
      attributes: half, newton on
      pair build: skip
      stencil: none
      bin: none
  (2) pair edip/multi, perpetual
      attributes: full, newton on
      pair build: full/bin/atomonly
      stencil: full/bin/3d
      bin: standard
  (3) neighbor class addition, perpetual, half/full from (2)
      attributes: half, newton on
      pair build: halffull/newton
      stencil: none
      bin: none
Setting up Verlet run ...
  Unit style    : metal
  Current step  : 11000441
  Time step     : 0.00025
Per MPI rank memory allocation (min/avg/max) = 7.113 | 11.35 | 13.35 Mbytes
Step Time Temp PotEng E_pair TotEng Press Volume Lx Ly Lz CPULeft 
11000441            0    299.88044   -2068848.5   -2068848.5   -2051627.4    21.022873    5506040.4    102.54627    102.04559    526.16902            0 
11010000      2.38975    300.46012   -2068871.6   -2068871.6   -2051617.3    131.48903    5505922.2    102.55124    102.03846    526.16902    33459.763 
11020000      4.88975      299.814   -2068853.2   -2068853.2   -2051635.9    46.558236    5506089.3    102.54746    102.04531    526.16902    33186.516 
11030000      7.38975    300.00567   -2068858.9   -2068858.9   -2051630.6    121.49236    5506210.1    102.55305      102.042    526.16902    32832.398 
11040000      9.88975    299.46629   -2068847.2   -2068847.2   -2051649.9   -216.64046    5506118.6    102.54956    102.04377    526.16902    32486.107 
11050000     12.38975    300.09569     -2068880     -2068880   -2051646.5   -240.36967      5504994    102.54502    102.02744    526.16902    32151.752 
11060000     14.88975    299.68467   -2068844.7   -2068844.7   -2051634.9    147.32142    5504052.5    102.53482    102.02015    526.16902    31811.966 
11070000     17.38975     300.2184   -2068857.7   -2068857.7   -2051617.2   -171.44272    5504531.5    102.53361    102.03022    526.16902    31473.584 
11080000     19.88975    300.30907   -2068851.2   -2068851.2   -2051605.5   -96.516788    5505312.5    102.55019     102.0282    526.16902    31133.003 
11090000     22.38975    299.80028     -2068867     -2068867   -2051650.5    204.40729    5504703.9    102.54119    102.02588    526.16902    30797.926 
11100000     24.88975    299.96968   -2068872.7   -2068872.7   -2051646.5    213.27732      5505012    102.54036    102.03241    526.16902    30459.465 
11110000     27.38975    300.12953   -2068868.5   -2068868.5   -2051633.1    117.05123    5505430.2    102.53733    102.04318    526.16902    30119.832 
11120000     29.88975    299.61299   -2068848.7   -2068848.7     -2051643   -34.962605    5505808.1    102.54998    102.03759    526.16902     29779.05 
11130000     32.38975    300.33401   -2068882.4   -2068882.4   -2051635.3   -72.692506    5505901.3    102.55344    102.03588    526.16902    29440.156 
11140000     34.88975    300.07669   -2068868.4   -2068868.4     -2051636    80.556622    5505139.4    102.54729    102.02788    526.16902    29101.201 
11150000     37.38975    299.22154   -2068849.7   -2068849.7   -2051666.4    -162.0238    5505517.1     102.5495    102.03268    526.16902    28763.696 
11160000     39.88975    300.02399   -2068872.3   -2068872.3   -2051642.9   -466.00592      5505073     102.5432    102.03072    526.16902    28424.867 
11170000     42.38975    300.19031   -2068854.2   -2068854.2   -2051615.3    168.24933    5504326.1    102.52775    102.03225    526.16902    28085.816 
11180000     44.88975    299.88254     -2068847     -2068847   -2051625.8   -304.53531    5504909.1    102.53409    102.03675    526.16902    27748.179 
11190000     47.38975    300.03713   -2068846.6   -2068846.6   -2051616.5   -8.3253994    5504356.7    102.53758    102.02303    526.16902    27410.265 
11200000     49.88975    300.07525   -2068863.1   -2068863.1   -2051630.8    117.58594    5504392.3    102.53309    102.02817    526.16902    27070.941 
11210000     52.38975    300.25861   -2068872.3   -2068872.3   -2051629.5   -100.36697    5505594.9    102.54232    102.04126    526.16902    26731.973 
11220000     54.88975    299.62666   -2068850.7   -2068850.7   -2051644.1   0.78227034    5505662.4      102.546    102.03886    526.16902    26393.963 
11230000     57.38975    299.96181   -2068850.9   -2068850.9   -2051625.1    135.52515    5505656.7    102.54003    102.04469    526.16902    26055.214 
11240000     59.88975    300.04884   -2068855.3   -2068855.3   -2051624.5    8.8843772    5505403.6    102.54567    102.03439    526.16902    25717.638 
11250000     62.38975    299.81792   -2068848.1   -2068848.1   -2051630.6    145.84022      5505812    102.55257    102.03509    526.16902    25379.538 
11260000     64.88975    299.86139   -2068850.4   -2068850.4   -2051630.4   -131.43133    5505671.5    102.54709    102.03794    526.16902    25041.426 
11270000     67.38975     299.8521   -2068858.2   -2068858.2   -2051638.7    49.182338    5505081.5    102.53777    102.03628    526.16902    24702.573 
11280000     69.88975    300.50955   -2068884.6   -2068884.6   -2051627.3   -171.25133    5505042.4    102.54062    102.03272    526.16902    24363.559 
11290000     72.38975     300.0208   -2068849.6   -2068849.6   -2051620.4    -156.0134      5505199    102.53805    102.03818    526.16902    24025.835 
11300000     74.88975    300.13503   -2068865.2   -2068865.2   -2051629.5   -169.51878    5505536.9    102.54849    102.03405    526.16902    23687.828 
11310000     77.38975    300.17057   -2068877.4   -2068877.4   -2051639.7    316.92152      5505067    102.53834    102.03545    526.16902    23349.082 
11320000     79.88975    299.91079   -2068843.7   -2068843.7   -2051620.8    107.54037    5504930.1    102.54463    102.02665    526.16902    23010.957 
11330000     82.38975    299.77494   -2068866.8   -2068866.8   -2051651.8   -70.882757    5505956.1    102.54696    102.04334    526.16902    22673.015 
11340000     84.88975    299.41288   -2068855.9   -2068855.9   -2051661.6   -179.93947    5505597.3    102.54906     102.0346    526.16902    22335.056 
11350000     87.38975    299.88852   -2068877.8   -2068877.8   -2051656.2    200.37685    5505279.8    102.54326    102.03449    526.16902     21996.47 
11360000     89.88975    299.02117   -2068838.2   -2068838.2   -2051666.5    109.53224    5505082.8     102.5371    102.03697    526.16902    21657.685 
11370000     92.38975    300.28463   -2068869.1   -2068869.1   -2051624.8   -4.5390291    5505414.2    102.54235    102.03789    526.16902    21319.198 
11380000     94.88975    300.14126   -2068864.3   -2068864.3   -2051628.2   -202.05929    5505248.3    102.54144    102.03572    526.16902    20981.143 
11390000     97.38975    299.95635   -2068854.3   -2068854.3   -2051628.8    14.771456    5505248.4     102.5456    102.03158    526.16902    20642.884 
11400000     99.88975    300.41396   -2068868.9   -2068868.9   -2051617.2    67.472201    5504963.3    102.54359    102.02829    526.16902    20304.193 
11410000    102.38975    300.37994   -2068870.7   -2068870.7   -2051620.9    -147.6824    5505263.5    102.54191    102.03553    526.16902    19966.095 
11420000    104.88975    300.16747   -2068861.6   -2068861.6     -2051624   -60.964863    5505350.5    102.54392    102.03515    526.16902    19627.956 
11430000    107.38975    300.00676   -2068861.2   -2068861.2   -2051632.9   -145.25932    5506223.6    102.56192    102.03342    526.16902    19289.828 
11440000    109.88975    299.75391   -2068879.9   -2068879.9   -2051666.1   -325.20278    5506354.5    102.55619    102.04155    526.16902     18951.12 
11450000    112.38975     300.4306   -2068876.1   -2068876.1   -2051623.4    207.64607    5505132.4    102.53935    102.03565    526.16902    18612.664 
11460000    114.88975    300.50978   -2068858.5   -2068858.5   -2051601.2   -42.735477    5505502.6    102.55061    102.03131    526.16902    18274.341 
11470000    117.38975    300.63003   -2068862.8   -2068862.8   -2051598.7     72.49584      5505353    102.55083    102.02832    526.16902    17936.021 
11480000    119.88975    300.04723   -2068853.7   -2068853.7     -2051623   -132.80507    5505785.2    102.54729    102.03984    526.16902    17598.047 
11490000    122.38975    300.24649     -2068865     -2068865   -2051622.9   -142.87033    5505958.9     102.5524    102.03798    526.16902    17260.225 
11500000    124.88975    299.93509   -2068849.4   -2068849.4   -2051625.1   -71.870428    5505581.5    102.53869    102.04463    526.16902    16921.828 
11510000    127.38975    300.11532   -2068859.3   -2068859.3   -2051624.7    142.90255    5505016.8    102.54063    102.03223    526.16902     16583.96 
11520000    129.88975    300.14299     -2068873     -2068873   -2051636.8   -23.334127    5505259.7    102.54353    102.03385    526.16902    16245.817 
11530000    132.38975    299.76999   -2068842.8   -2068842.8     -2051628    162.06839    5505655.6    102.54805    102.03669    526.16902    15907.922 
11540000    134.88975    300.72291   -2068884.8   -2068884.8   -2051615.4    53.432081    5505607.9      102.546    102.03784    526.16902    15569.656 
11550000    137.38975    300.22031   -2068851.8   -2068851.8   -2051611.1   -70.663459    5506168.6    102.55383    102.04044    526.16902    15231.684 
11560000    139.88975    299.72166   -2068849.3   -2068849.3   -2051637.3    190.19959    5505134.6    102.54538    102.02969    526.16902    14893.401 
11570000    142.38975    300.18671     -2068852     -2068852   -2051613.3    -179.1167    5505935.8    102.54836    102.04158    526.16902    14555.346 
11580000    144.88975    300.19371   -2068864.8   -2068864.8   -2051625.8    238.60969    5505700.9     102.5591    102.02654    526.16902     14217.38 
11590000    147.38975    300.29215   -2068876.9   -2068876.9   -2051632.1   -190.01137    5505610.7    102.54945    102.03447    526.16902    13879.385 
11600000    149.88975      299.769   -2068851.8   -2068851.8   -2051637.1   -308.08967    5505827.9    102.54991    102.03803    526.16902     13541.34 
11610000    152.38975    299.89717   -2068875.6   -2068875.6   -2051653.5   -139.42844    5505232.5    102.54526    102.03163    526.16902    13203.243 
11620000    154.88975    300.02479   -2068870.9   -2068870.9   -2051641.5   -99.564487    5505602.4    102.54695     102.0368    526.16902    12865.168 
11630000    157.38975    299.81671     -2068860     -2068860   -2051642.6   -370.50028    5506453.3    102.55316    102.04639    526.16902    12527.211 
11640000    159.88975     299.8397     -2068870     -2068870   -2051651.3    271.89173    5505069.8    102.54342    102.03044    526.16902    12189.037 
11650000    162.38975    300.26345   -2068896.9   -2068896.9   -2051653.8   -153.44378    5505802.3    102.54822    102.03924    526.16902    11850.866 
11660000    164.88975     300.2762     -2068879     -2068879   -2051635.2    8.1294167      5505545    102.54178    102.04088    526.16902    11512.692 
11670000    167.38975    299.94048   -2068851.6   -2068851.6     -2051627   -107.55244    5506257.4    102.55552    102.04041    526.16902    11174.651 
11680000    169.88975    300.06206   -2068882.5   -2068882.5     -2051651   -214.80277    5505949.1    102.54284    102.04731    526.16902    10836.668 
11690000    172.38975    300.18219   -2068876.9   -2068876.9   -2051638.5    115.47311    5505279.5    102.54437    102.03338    526.16902    10498.593 
11700000    174.88975    299.83631   -2068873.1   -2068873.1   -2051654.5     -29.2845      5505297    102.54788    102.03021    526.16902    10160.529 
11710000    177.38975    299.62319   -2068866.3   -2068866.3   -2051659.9   -101.81118      5504953    102.54069    102.03099    526.16902    9822.3845 
11720000    179.88975    299.93506   -2068856.1   -2068856.1   -2051631.9    27.395185    5505328.8    102.54273    102.03593    526.16902    9484.3618 
11730000    182.38975    299.59975   -2068844.1   -2068844.1   -2051639.1   -63.946793    5505324.3    102.54208    102.03649    526.16902    9146.1468 
11740000    184.88975    300.14771   -2068868.7   -2068868.7   -2051632.2   -41.986436    5505637.6    102.54507    102.03933    526.16902    8807.9864 
11750000    187.38975    300.36678   -2068852.9   -2068852.9   -2051603.9   -46.345648    5505086.8    102.55009    102.02412    526.16902    8469.8352 
11760000    189.88975    299.73839   -2068856.7   -2068856.7   -2051643.7    379.58568    5505115.7    102.54238    102.03232    526.16902    8131.6577 
11770000    192.38975    299.69375   -2068876.5   -2068876.5   -2051666.1    155.49622    5505361.6      102.545    102.03428    526.16902    7793.4608 
11780000    194.88975    299.89332   -2068880.1   -2068880.1   -2051658.2    -1.297979    5506691.7    102.56073    102.04327    526.16902    7455.2621 
11790000    197.38975    300.30772   -2068867.3   -2068867.3   -2051621.6    183.37304    5505646.1    102.54623    102.03832    526.16902    7117.4219 
11800000    199.88975    300.09822   -2068849.3   -2068849.3   -2051615.7   -305.21511    5505614.5    102.54422    102.03974    526.16902    6779.1953 
11810000    202.38975    299.78991   -2068857.2   -2068857.2   -2051641.3   -110.98887      5505867    102.55338    102.03531    526.16902    6440.9701 
11820000    204.88975    300.56813   -2068880.2   -2068880.2   -2051619.6    24.777963    5504731.7    102.53507    102.03248    526.16902    6102.7425 
11830000    207.38975    300.17111     -2068857     -2068857   -2051619.2    68.242021      5505663    102.54927    102.03562    526.16902    5764.5215 
11840000    209.88975    299.72965   -2068853.3   -2068853.3   -2051640.8    -40.25944    5505085.1    102.54667    102.02749    526.16902    5426.3201 
11850000    212.38975    299.85276   -2068876.6   -2068876.6   -2051657.1   -50.585747    5505504.3    102.55201    102.02994    526.16902    5088.1089 
11860000    214.88975    300.08795   -2068878.8   -2068878.8   -2051645.7    -366.3047    5505945.6    102.55166    102.03848    526.16902    4749.8954 
11870000    217.38975     300.0455   -2068876.6   -2068876.6     -2051646   -190.27599    5505718.6    102.54686    102.03904    526.16902    4411.6674 
11880000    219.88975    299.94395   -2068855.7   -2068855.7     -2051631   -35.382685    5505826.3    102.55415    102.03379    526.16902    4073.4518 
11890000    222.38975    299.58779   -2068842.6   -2068842.6   -2051638.3    50.282223    5504954.7    102.54876    102.02299    526.16902     3735.242 
11900000    224.88975     299.7567     -2068867     -2068867   -2051653.1    58.334692    5504931.2    102.53639    102.03487    526.16902    3397.0016 
11910000    227.38975    299.54239   -2068864.2   -2068864.2   -2051662.5    46.347884    5505087.1    102.53701    102.03714    526.16902    3058.7857 
11920000    229.88975    300.16483   -2068880.4   -2068880.4     -2051643   -90.634555    5505525.9    102.53906    102.04323    526.16902    2720.5738 
11930000    232.38975    299.58551   -2068880.2   -2068880.2     -2051676    94.178569    5505663.6    102.54732    102.03757    526.16902    2382.3697 
11940000    234.88975    300.29139   -2068867.6   -2068867.6   -2051622.9    36.669488    5504935.8    102.54073    102.03063    526.16902     2044.138 
11950000    237.38975    300.36318   -2068878.5   -2068878.5   -2051629.7    86.071665    5504679.2    102.53649     102.0301    526.16902    1705.9177 
11960000    239.88975     299.7417   -2068864.2   -2068864.2   -2051651.1   -98.400724    5505529.1     102.5556    102.02683    526.16902     1367.726 
11970000    242.38975    299.89913   -2068848.4   -2068848.4   -2051626.3    21.027497    5506069.6    102.55428    102.03816    526.16902    1029.5158 
11980000    244.88975    299.94104   -2068871.3   -2068871.3   -2051646.8   -233.95845    5505847.7    102.54461    102.04367    526.16902     691.3152 
11990000    247.38975     300.0388   -2068863.9   -2068863.9   -2051633.7   -45.872939    5505885.9    102.54869    102.04032    526.16902    353.11666 
12000000    249.88975    300.44716   -2068869.3   -2068869.3   -2051615.7    273.42588    5505173.9    102.54176    102.03402    526.16902    14.914664 
12000441          250    300.20089   -2068877.4   -2068877.4   -2051637.9    189.40819    5505183.5    102.54174    102.03422    526.16902            0 
Loop time of 33820.1 on 96 procs for 1000000 steps with 444272 atoms

Performance: 0.639 ns/day, 37.578 hours/ns, 29.568 timesteps/s
100.0% CPU use with 96 MPI tasks x 1 OpenMP threads

MPI task timing breakdown:
Section |  min time  |  avg time  |  max time  |%varavg| %total
---------------------------------------------------------------
Pair    | 11162      | 21163      | 32705      |4404.4 | 62.58
Neigh   | 23.297     | 60.871     | 77.116     | 226.2 |  0.18
Comm    | 465.39     | 5972.4     | 12354      |5314.6 | 17.66
Output  | 1.9561     | 1.9574     | 1.9884     |   0.2 |  0.01
Modify  | 466.73     | 6550.2     | 12263      |6675.0 | 19.37
Other   |            | 71.22      |            |       |  0.21

Nlocal:        4627.83 ave        5534 max        2220 min
Histogram: 12 0 0 0 12 0 8 4 16 44
Nghost:        9069.23 ave       10753 max        4777 min
Histogram: 12 0 0 0 0 3 21 6 29 25
Neighs:         0.00000 ave           0 max           0 min
Histogram: 96 0 0 0 0 0 0 0 0 0
FullNghs:      868150.0 ave 1.16068e+06 max      347336 min
Histogram: 12 0 8 4 0 0 24 12 7 29

Total # of neighbors = 83342388
Ave neighs/atom = 187.59316
Neighbor list builds = 2422
Dangerous builds = 0
System init for write_restart ...
System init for write_data ...
Total wall time: 9:23:41
