LAMMPS (29 Sep 2021)
  using 1 OpenMP thread(s) per MPI task
Reading restart file ...
  restart file = 29 Sep 2021, LAMMPS = 29 Sep 2021
  restoring atom style atomic from restart
  orthogonal box = (0.59322830 0.59089261 0.0000000) to (99.926862 99.929198 535.86400)
  2 by 3 by 16 MPI processor grid
  pair style hybrid/overlay stores no restart info
  444900 atoms
  read_restart CPU = 0.162 seconds
Resetting global fix info from restart file:
  fix style: npt, fix ID: 2

CITE-CITE-CITE-CITE-CITE-CITE-CITE-CITE-CITE-CITE-CITE-CITE-CITE

Your simulation uses code contributions which should be cited:
- @article{cjiang2012
The log file lists these citations in BibTeX format.

CITE-CITE-CITE-CITE-CITE-CITE-CITE-CITE-CITE-CITE-CITE-CITE-CITE

All restart file global fix info was re-assigned
Unused restart file peratom fix info:
  fix style: STORE, fix ID: spatialbins_COMPUTE_STORE
Neighbor list info ...
  update every 1 steps, delay 10 steps, check yes
  max neighbors/atom: 2000, page size: 100000
  master list distance cutoff = 8.28721
  ghost atom cutoff = 8.28721
  binsize = 4.143605, bins = 24 24 130
  3 neighbor lists, perpetual/occasional/extra = 3 0 0
  (1) pair eam/alloy, perpetual, skip from (3)
      attributes: half, newton on
      pair build: skip
      stencil: none
      bin: none
  (2) pair edip/multi, perpetual
      attributes: full, newton on
      pair build: full/bin/atomonly
      stencil: full/bin/3d
      bin: standard
  (3) neighbor class addition, perpetual, half/full from (2)
      attributes: half, newton on
      pair build: halffull/newton
      stencil: none
      bin: none
Setting up Verlet run ...
  Unit style    : metal
  Current step  : 11000923
  Time step     : 0.00025
Per MPI rank memory allocation (min/avg/max) = 8.719 | 11.59 | 14.71 Mbytes
Step Time Temp PotEng E_pair TotEng Press Volume Lx Ly Lz CPULeft 
11000923            0    300.17569     -2213844     -2213844   -2196581.6   -266.31882    5287710.3    99.333634    99.338305      535.864            0 
11010000      2.26925    300.39571   -2213856.1   -2213856.1     -2196581    411.56145    5286862.1    99.324991    99.331013      535.864    69842.406 
11020000      4.76925    300.15346     -2213838     -2213838   -2196576.9    29.683899    5286922.2    99.327498    99.329636      535.864     69207.31 
11030000      7.26925    300.05285   -2213824.7   -2213824.7   -2196569.3    760.05939    5287032.8     99.33339    99.325823      535.864    68529.129 
11040000      9.76925    299.65987     -2213831     -2213831   -2196598.2   -262.35559    5287025.2     99.33226    99.326808      535.864    67830.778 
11050000     12.26925    300.21414   -2213814.7   -2213814.7   -2196550.1   -404.28745    5287151.1    99.333672    99.327761      535.864    67126.971 
11060000     14.76925    300.12043   -2213834.8   -2213834.8   -2196575.6   -369.44344    5287433.5     99.33517    99.331569      535.864    66423.271 
11070000     17.26925    299.64408   -2213833.2   -2213833.2   -2196601.4    37.628408    5286847.3    99.335403    99.320324      535.864    65716.812 
11080000     19.76925    299.83162   -2213821.5   -2213821.5   -2196578.9    111.28531    5287447.5    99.336093    99.330911      535.864    65007.268 
11090000     22.26925    299.56968   -2213834.2   -2213834.2   -2196606.7   -97.713842    5287883.2    99.342774    99.332414      535.864    64297.596 
11100000     24.76925    300.15324   -2213864.1   -2213864.1     -2196603   -730.23603    5287297.8    99.338323    99.325867      535.864    63591.965 
11110000     27.26925    299.95816     -2213832     -2213832   -2196582.1   -84.235569    5286989.3    99.333196    99.325199      535.864    62885.323 
11120000     29.76925    300.26154   -2213845.8   -2213845.8   -2196578.4    147.25536    5286720.9    99.334123    99.319229      535.864    62184.596 
11130000     32.26925    299.96154   -2213826.2   -2213826.2   -2196576.1    127.00768    5286689.2    99.329532    99.323223      535.864    61482.478 
11140000     34.76925    300.30832   -2213842.4   -2213842.4   -2196572.3   -426.94732    5287551.3    99.340889    99.328064      535.864    60780.728 
11150000     37.26925    300.26176   -2213856.4   -2213856.4   -2196589.1    356.13431    5287168.4    99.335689     99.32607      535.864    60074.722 
11160000     39.76925    300.49214   -2213859.8   -2213859.8   -2196579.2   -306.71909    5287733.9    99.340706    99.331678      535.864    59369.098 
11170000     42.26925    300.43759     -2213855     -2213855   -2196577.5    81.603696    5286677.4    99.325905    99.326629      535.864    58662.163 
11180000     44.76925    299.79074   -2213855.2   -2213855.2   -2196614.9   -275.05858    5287353.1    99.334748    99.330481      535.864    57954.267 
11190000     47.26925    300.30615   -2213837.8   -2213837.8   -2196567.9    307.81811    5286909.8    99.329848    99.327052      535.864    57251.054 
11200000     49.76925    300.17804   -2213863.3   -2213863.3   -2196600.7    143.92203    5287024.7    99.335579     99.32348      535.864    56545.986 
11210000     52.26925     300.2984   -2213852.6   -2213852.6   -2196583.2    -503.2594    5287490.8    99.332789    99.335026      535.864    55842.309 
11220000     54.76925      299.706   -2213832.4   -2213832.4     -2196597    571.16562      5286582    99.334454     99.31629      535.864    55137.117 
11230000     57.26925    299.77838   -2213828.2   -2213828.2   -2196588.6   -247.59335    5287119.2    99.337676    99.323159      535.864    54431.701 
11240000     59.76925    300.29771   -2213844.3   -2213844.3   -2196574.9   -58.573246    5287039.7    99.334892     99.32445      535.864     53723.56 
11250000     62.26925     300.0797     -2213853     -2213853   -2196596.1   -133.77862    5287822.7     99.34182     99.33223      535.864    53017.166 
11260000     64.76925     299.8828   -2213849.5   -2213849.5   -2196603.9   -67.032651    5287546.9    99.335295    99.333576      535.864    52311.372 
11270000     67.26925    299.92112   -2213869.6   -2213869.6   -2196621.9    77.338719    5286850.5    99.327052    99.328735      535.864     51605.77 
11280000     69.76925    300.47687   -2213878.4   -2213878.4   -2196598.7   -623.09458    5287332.5    99.332504    99.332337      535.864    50899.728 
11290000     72.26925    299.74524   -2213860.9   -2213860.9   -2196623.3   -515.92082    5286659.6    99.334192    99.318008      535.864    50194.503 
11300000     74.76925    300.05183   -2213861.9   -2213861.9   -2196606.6   -259.24215    5286660.9    99.329435     99.32279      535.864    49489.582 
11310000     77.26925    299.23937   -2213839.3   -2213839.3   -2196630.7   -313.99576    5287299.9    99.340289    99.323941      535.864    48785.052 
11320000     79.76925    300.23247   -2213879.7   -2213879.7     -2196614   -695.90428    5287466.2     99.33765    99.329704      535.864    48079.443 
11330000     82.26925    300.23984   -2213885.5   -2213885.5   -2196619.4    130.09002    5287428.7    99.335854    99.330795      535.864    47372.985 
11340000     84.76925    299.88662   -2213848.5   -2213848.5   -2196602.7   -155.39728    5287735.2    99.333766    99.338641      535.864    46666.435 
11350000     87.26925    300.47821   -2213893.5   -2213893.5   -2196613.6   -42.999626    5287404.5    99.340792    99.325403      535.864    45959.273 
11360000     89.76925    300.08233   -2213862.5   -2213862.5   -2196605.5   -48.058665      5287480     99.33682    99.330793      535.864    45252.346 
11370000     92.26925    300.16896   -2213848.8   -2213848.8   -2196586.8   -100.52988    5286610.7    99.334639    99.316642      535.864    44546.366 
11380000     94.76925    300.24185   -2213853.1   -2213853.1   -2196586.9    328.86425    5286660.6    99.329642    99.322577      535.864    43839.955 
11390000     97.26925     300.2623   -2213870.9   -2213870.9   -2196603.5    -495.8317    5287214.9     99.32198    99.340653      535.864    43135.149 
11400000     99.76925    299.88208   -2213883.7   -2213883.7   -2196638.1   -206.22943    5286815.7    99.333265    99.321869      535.864    42429.878 
11410000    102.26925    299.92165   -2213879.9   -2213879.9   -2196632.1   -431.44016    5287135.9     99.33205    99.329099      535.864    41724.531 
11420000    104.76925    300.14803   -2213893.6   -2213893.6   -2196632.8    376.89212    5287059.2    99.339584    99.320123      535.864    41017.734 
11430000    107.26925    299.90111   -2213895.6   -2213895.6     -2196649   -692.86517    5287566.8    99.343766    99.325478      535.864    40311.174 
11440000    109.76925    299.91989   -2213886.5   -2213886.5   -2196638.8    90.678493    5286855.2    99.333933    99.321942      535.864    39605.089 
11450000    112.26925    299.27685   -2213856.5   -2213856.5   -2196645.8   -677.57566    5288001.7    99.346505     99.33091      535.864    38897.982 
11460000    114.76925      299.754   -2213877.7   -2213877.7   -2196639.5    213.29975    5287112.5    99.334738    99.325972      535.864    38191.972 
11470000    117.26925    300.74013   -2213914.1   -2213914.1   -2196619.2   -327.92831    5286497.7    99.326435    99.322723      535.864    37486.093 
11480000    119.76925    300.08164   -2213861.1   -2213861.1   -2196604.1     131.9539    5286710.2    99.328826    99.324324      535.864     36780.18 
11490000    122.26925    300.09283   -2213871.9   -2213871.9   -2196614.3   -478.09054    5287507.5    99.335824    99.332306      535.864    36074.518 
11500000    124.76925    300.38406   -2213877.7   -2213877.7   -2196603.3    601.40005    5287105.1    99.330427    99.330143      535.864     35368.28 
11510000    127.26925    300.15222   -2213900.2   -2213900.2   -2196639.2   -61.671975    5287068.1    99.330254     99.32962      535.864    34662.427 
11520000    129.76925    299.56332   -2213873.6   -2213873.6   -2196646.4   -347.79403    5287367.8    99.342366    99.323139      535.864    33955.995 
11530000    132.26925    300.00234   -2213877.5   -2213877.5     -2196625   -211.21489    5287282.4    99.336708    99.327193      535.864     33250.04 
11540000    134.76925    299.74001   -2213872.4   -2213872.4     -2196635   -40.253866      5287901     99.33874    99.336781      535.864    32543.963 
11550000    137.26925    300.07595   -2213894.5   -2213894.5   -2196637.8   -349.61336    5286902.4    99.330961    99.325801      535.864    31838.348 
11560000    139.76925    299.84278   -2213883.1   -2213883.1   -2196639.8    103.80465    5286952.1    99.330444     99.32725      535.864    31132.465 
11570000    142.26925    300.11934   -2213893.7   -2213893.7   -2196634.5    39.238373    5287214.4    99.341204    99.321421      535.864     30426.68 
11580000    144.76925    300.14867   -2213889.3   -2213889.3   -2196628.4    187.34241    5286953.7    99.324577    99.333148      535.864    29721.064 
11590000    147.26925    299.80729   -2213896.9   -2213896.9   -2196655.7   -288.07583    5287359.9     99.34114    99.324218      535.864     29015.48 
11600000    149.76925    299.72612   -2213892.5   -2213892.5     -2196656   -80.840673    5287556.4     99.33285    99.336199      535.864    28309.742 
11610000    152.26925    299.48004   -2213892.1   -2213892.1   -2196669.7   -383.69025    5288006.1    99.348339    99.329159      535.864    27604.156 
11620000    154.76925    299.88668   -2213889.1   -2213889.1   -2196643.3    111.61186    5287497.1    99.337553    99.330381      535.864    26898.402 
11630000    157.26925    299.85047   -2213889.7   -2213889.7     -2196646    50.369584    5287086.9    99.325631    99.334597      535.864    26192.484 
11640000    159.76925    300.09786   -2213921.3   -2213921.3   -2196663.4   -140.20381    5287642.9    99.342053    99.328621      535.864    25486.827 
11650000    162.26925    300.50781   -2213915.8   -2213915.8   -2196634.3    -248.7179    5286948.7    99.331203    99.326428      535.864    24780.867 
11660000    164.76925    300.04482   -2213901.9   -2213901.9     -2196647    201.95015    5286983.8    99.334015    99.324276      535.864     24074.83 
11670000    167.26925     299.8627   -2213881.2   -2213881.2   -2196636.8    330.06715    5287298.6    99.330413    99.333792      535.864    23368.721 
11680000    169.76925    300.49177   -2213916.7   -2213916.7   -2196636.1    253.68532    5287480.1    99.339585    99.328031      535.864    22662.443 
11690000    172.26925    300.17521   -2213921.6   -2213921.6   -2196659.2    303.34991    5288284.2    99.344841    99.337881      535.864    21956.012 
11700000    174.76925    299.78019   -2213886.4   -2213886.4   -2196646.8   -256.08743      5287833    99.345997    99.328248      535.864    21249.763 
11710000    177.26925    300.21041   -2213936.8   -2213936.8   -2196672.4    166.02662    5287710.9    99.338436    99.333514      535.864    20543.571 
11720000    179.76925    299.91646   -2213899.6   -2213899.6   -2196652.1    103.53645      5287599    99.343205    99.326644      535.864    19837.351 
11730000    182.26925    299.83998   -2213908.4   -2213908.4   -2196665.3    -340.9797    5287053.6    99.336087    99.323515      535.864      19131.2 
11740000    184.76925    300.06661     -2213904     -2213904   -2196647.9   -189.08046      5287681    99.335317    99.336072      535.864    18425.249 
11750000    187.26925     299.5329   -2213898.4   -2213898.4   -2196672.9   -207.38703    5287274.7    99.328414    99.335343      535.864      17719.1 
11760000    189.76925    299.97583   -2213884.8   -2213884.8   -2196633.9    -37.10563    5287284.2    99.329561    99.334374      535.864    17012.856 
11770000    192.26925    299.56914   -2213896.2   -2213896.2   -2196668.6   -81.837266    5287732.3    99.336691    99.335662      535.864    16306.726 
11780000    194.76925    300.32133     -2213934     -2213934   -2196663.2   -629.22642      5287701    99.340889    99.330875      535.864    15600.671 
11790000    197.26925    300.28499   -2213928.3   -2213928.3   -2196659.6    86.116509    5287624.5    99.334736    99.335592      535.864    14894.491 
11800000    199.76925    300.38458   -2213948.4   -2213948.4     -2196674    259.03185      5287226    99.334013    99.328829      535.864    14188.369 
11810000    202.26925    300.04464     -2213897     -2213897   -2196642.1    366.04711    5287225.8    99.334665    99.328173      535.864    13482.241 
11820000    204.76925    299.82371   -2213925.1   -2213925.1   -2196682.9   -251.11347    5286965.7    99.334454    99.323497      535.864    12776.185 
11830000    207.26925     299.8056   -2213885.8   -2213885.8   -2196644.7   -130.43285    5287475.5    99.335032    99.332498      535.864    12070.186 
11840000    209.76925    299.73597   -2213919.4   -2213919.4   -2196682.3    426.80005    5287016.8    99.326562    99.332349      535.864    11364.152 
11850000    212.26925     300.2586   -2213885.5   -2213885.5   -2196618.3   -107.84957    5287014.8    99.331243    99.327631      535.864    10658.189 
11860000    214.76925    299.88368   -2213913.3   -2213913.3   -2196667.7    261.17251    5287697.5    99.345445    99.326254      535.864    9952.0678 
11870000    217.26925    300.16965   -2213928.9   -2213928.9   -2196666.8   -24.966121    5286989.2    99.337661    99.320732      535.864    9245.8584 
11880000    219.76925    299.96486   -2213913.2   -2213913.2   -2196662.9   -365.65906    5287825.3    99.335985    99.338114      535.864    8539.6244 
11890000    222.26925    300.21552   -2213928.9   -2213928.9   -2196664.2   -56.671228    5287898.7    99.344006    99.331474      535.864    7833.4262 
11900000    224.76925    299.49642   -2213881.8   -2213881.8   -2196658.4   -214.59869    5287670.6    99.341599    99.329594      535.864    7127.2926 
11910000    227.26925    299.88592   -2213904.7   -2213904.7   -2196658.9   -676.27166    5287394.3    99.333541    99.332461      535.864    6421.1354 
11920000    229.76925    299.90654   -2213954.9   -2213954.9     -2196708    91.450704    5287450.6    99.337822    99.329239      535.864    5714.9415 
11930000    232.26925    300.16002   -2213939.8   -2213939.8   -2196678.3   -610.68656    5287461.8    99.335601     99.33167      535.864    5008.7857 
11940000    234.76925    299.66816   -2213931.7   -2213931.7   -2196698.4   -849.87125    5287471.7     99.33891    99.328548      535.864      4302.59 
11950000    237.26925    299.37034   -2213894.5   -2213894.5   -2196678.4     455.7858    5287671.7    99.335894    99.335319      535.864    3596.3546 
11960000    239.76925    300.08689   -2213944.6   -2213944.6   -2196687.3    145.21587    5287489.9    99.337493    99.330306      535.864    2890.1225 
11970000    242.26925     299.5421   -2213890.4   -2213890.4   -2196664.4    76.949866    5287356.1    99.337259    99.328026      535.864    2183.8941 
11980000    244.76925    300.09271   -2213908.3   -2213908.3   -2196650.6    153.30845    5287525.8    99.332054     99.33642      535.864    1477.6716 
11990000    247.26925    300.12261   -2213941.6   -2213941.6   -2196682.2   -341.47208    5286949.8    99.334721    99.322932      535.864    771.43464 
12000000    249.76925    300.02782   -2213943.6   -2213943.6   -2196689.7   -337.81496    5287333.1    99.337373    99.327479      535.864    65.187353 
12000923          250     300.0567   -2213927.9   -2213927.9   -2196672.3   0.79662918    5287504.9    99.338023    99.330059      535.864            0 
Loop time of 70625.6 on 96 procs for 1000000 steps with 444900 atoms

Performance: 0.306 ns/day, 78.473 hours/ns, 14.159 timesteps/s
100.0% CPU use with 96 MPI tasks x 1 OpenMP threads

MPI task timing breakdown:
Section |  min time  |  avg time  |  max time  |%varavg| %total
---------------------------------------------------------------
Pair    | 11799      | 27401      | 69368      |12313.0 | 38.80
Neigh   | 38.922     | 63.095     | 108.23     | 287.6 |  0.09
Comm    | 348.61     | 15373      | 57371      |16642.2 | 21.77
Output  | 1.9443     | 1.9463     | 1.9768     |   0.2 |  0.00
Modify  | 522.16     | 27708      | 57129      |14670.9 | 39.23
Other   |            | 77.96      |            |       |  0.11

Nlocal:        4634.38 ave        6698 max        3111 min
Histogram: 12 19 15 2 8 16 0 8 4 12
Nghost:        9014.99 ave       11780 max        5278 min
Histogram: 12 0 0 6 18 23 9 4 12 12
Neighs:         0.00000 ave           0 max           0 min
Histogram: 96 0 0 0 0 0 0 0 0 0
FullNghs:      814926.0 ave 1.10151e+06 max      568675 min
Histogram: 19 19 7 3 0 5 7 11 13 12

Total # of neighbors = 78232932
Ave neighs/atom = 175.84386
Neighbor list builds = 2381
Dangerous builds = 0
System init for write_restart ...
System init for write_data ...
Total wall time: 19:37:06
