LAMMPS (29 Sep 2021)
  using 1 OpenMP thread(s) per MPI task
Reading data file ...
  orthogonal box = (-0.29750865 -0.29818520 0.0000000) to (101.94057 101.94125 531.07200)
  2 by 2 by 6 MPI processor grid
  reading atoms ...
  425652 atoms
  reading velocities ...
  425652 velocities
  read_data CPU = 4.393 seconds
212826 atoms in group g_left
212826 atoms in group g_right

CITE-CITE-CITE-CITE-CITE-CITE-CITE-CITE-CITE-CITE-CITE-CITE-CITE

Your simulation uses code contributions which should be cited:
- GPU package (short-range, long-range and three-body potentials):
The log file lists these citations in BibTeX format.

CITE-CITE-CITE-CITE-CITE-CITE-CITE-CITE-CITE-CITE-CITE-CITE-CITE


--------------------------------------------------------------------------
- Using acceleration for eam/alloy:
-  with 12 proc(s) per device.
-  Horizontal vector operations: ENABLED
-  Shared memory system: No
--------------------------------------------------------------------------
Device 0: Tesla V100-SXM2-32GB, 80 CUs, 28/32 GB, 1.5 GHZ (Mixed Precision)
Device 1: Tesla V100-SXM2-32GB, 80 CUs, 1.5 GHZ (Mixed Precision)
--------------------------------------------------------------------------

Initializing Device and compiling on process 0...Done.
Initializing Devices 0-1 on core 0...Done.
Initializing Devices 0-1 on core 1...Done.
Initializing Devices 0-1 on core 2...Done.
Initializing Devices 0-1 on core 3...Done.
Initializing Devices 0-1 on core 4...Done.
Initializing Devices 0-1 on core 5...Done.
Initializing Devices 0-1 on core 6...Done.
Initializing Devices 0-1 on core 7...Done.
Initializing Devices 0-1 on core 8...Done.
Initializing Devices 0-1 on core 9...Done.
Initializing Devices 0-1 on core 10...Done.
Initializing Devices 0-1 on core 11...Done.

Setting up Verlet run ...
  Unit style    : metal
  Current step  : 0
  Time step     : 0.00025
Per MPI rank memory allocation (min/avg/max) = 8.303 | 10.19 | 11.14 Mbytes
Step Time Temp Press PotEng KinEng TotEng Volume 
       0            0    13088.008    135312.46   -1767444.2    720098.42   -1047345.7    5551170.1 
     100        0.025    13085.636    135569.11   -1767429.4    719967.87   -1047461.5    5538104.1 
     200         0.05    13085.839    135879.42   -1767442.7    719979.06   -1047463.7    5525038.2 
     300        0.075    13086.587    136216.78   -1767433.9    720020.21   -1047413.7    5511972.2 
     400          0.1    13086.141    136555.14   -1767408.3    719995.66   -1047412.6    5498906.3 
     500        0.125    13085.585    136869.38   -1767427.7    719965.11   -1047462.6    5485840.3 
     600         0.15    13085.602    137213.71   -1767447.4    719966.05   -1047481.3    5472774.4 
     700        0.175     13086.21    137564.95   -1767452.4    719999.46   -1047452.9    5459708.4 
     800          0.2    13085.758    137905.31   -1767413.8    719974.59   -1047439.2    5446642.5 
     900        0.225    13085.802    138209.32   -1767433.4    719977.03   -1047456.4    5433576.5 
    1000         0.25    13085.623    138529.65   -1767430.5    719967.17   -1047463.4    5420510.6 
    1100        0.275    13085.862    138873.96   -1767426.9    719980.33   -1047446.6    5407444.6 
    1200          0.3    13085.864    139249.41   -1767423.8    719980.42   -1047443.4    5394378.6 
    1300        0.325    13085.798    139599.51     -1767448     719976.8   -1047471.2    5381312.7 
    1400         0.35    13085.345    139944.54   -1767450.4     719951.9   -1047498.5    5368246.7 
    1500        0.375    13084.718    140295.05     -1767413     719917.4   -1047495.6    5355180.8 
    1600          0.4    13085.402    140633.94   -1767434.6    719955.03   -1047479.6    5342114.8 
    1700        0.425    13085.456     140979.8   -1767428.6       719958   -1047470.6    5329048.9 
    1800         0.45    13085.369    141333.16   -1767421.5    719953.19   -1047468.3    5315982.9 
    1900        0.475    13089.615    141523.38   -1767645.5    720186.83   -1047458.6      5302917 
    2000          0.5    13104.557    141761.52   -1768454.6    721008.91   -1047445.7      5289851 
    2100        0.525    13094.023     144501.5   -1767877.5    720429.32   -1047448.1    5276785.1 
    2200         0.55    12970.004    150204.25   -1761057.6    713605.88   -1047451.7    5263719.1 
    2300        0.575    12850.448    158562.05   -1754487.4    707027.91   -1047459.5    5250653.1 
    2400          0.6    12802.373    166154.78   -1751863.3    704382.84   -1047480.5    5237587.2 
    2500        0.625    12652.147    173617.08   -1743618.7    696117.47   -1047501.2    5224521.2 
    2600         0.65    12590.232    180630.16   -1740220.6    692710.92   -1047509.7    5211455.3 
    2700        0.675    12457.629    187936.47   -1732917.2    685415.15     -1047502    5198389.3 
    2800          0.7     12385.46    195076.21   -1728939.9    681444.42   -1047495.5    5185323.4 
    2900        0.725    12253.874    202634.77   -1721703.4    674204.62   -1047498.8    5172257.4 
    3000         0.75    12180.585    210097.63   -1717665.4    670172.25   -1047493.1    5159191.5 
    3100        0.775    12058.275    217471.61   -1710916.4    663442.79   -1047473.6    5146125.5 
    3200          0.8    11970.074    224507.74   -1706045.4    658590.02   -1047455.4    5133059.6 
    3300        0.825    11855.734    231897.38   -1699749.1    652299.07     -1047450    5119993.6 
    3400         0.85    11768.922     239153.8   -1694979.4    647522.65   -1047456.7    5106927.6 
    3500        0.875    11652.822    247228.02   -1688606.6    641134.91   -1047471.7    5093861.7 
    3600          0.9    11590.477    252662.89   -1685186.2    637704.71   -1047481.5    5080795.7 
    3700        0.925    11667.197    251632.89   -1689402.5    641925.79   -1047476.7    5067729.8 
    3800         0.95    11599.199    249070.12   -1685647.5    638184.56   -1047462.9    5054663.8 
    3900        0.975    11541.173    247341.41     -1682451    634991.99     -1047459    5041597.9 
    4000            1     11576.54     247293.7   -1684420.2    636937.89   -1047482.3    5028531.9 
    4100        1.025    11576.559    249614.48   -1684457.5     636938.9   -1047518.6      5015466 
    4200         1.05    11523.287    252063.74   -1681544.7    634007.93   -1047536.8      5002400 
    4300        1.075    11571.808    250943.94   -1684206.1    636677.51   -1047528.6    4989334.1 
    4400          1.1    11538.648    249820.89   -1682370.9    634853.06   -1047517.8    4976268.1 
    4500        1.125    11516.162    249852.17   -1681125.6    633615.89   -1047509.8    4963202.1 
    4600         1.15    11530.588    250075.04     -1681910    634409.62   -1047500.3    4950136.2 
    4700        1.175    11470.601    252255.39   -1678600.4    631109.16   -1047491.2    4937070.2 
    4800          1.2    11378.126     258412.3   -1673495.2     626021.2     -1047474    4924004.3 
    4900        1.225    11326.344    262284.85   -1670625.2    623172.16     -1047453    4910938.3 
    5000         1.25    11124.307     263650.5   -1659492.9    612056.13   -1047436.7    4897872.4 
    5100        1.275     11072.01    268947.55     -1656617     609178.8   -1047438.2    4884806.4 
    5200          1.3    10920.415    277244.77   -1648294.4    600838.08   -1047456.3    4871740.5 
    5300        1.325    10811.929    281156.49   -1642346.9     594869.2   -1047477.7    4858674.5 
    5400         1.35    10662.023    286258.37   -1634110.1    586621.42   -1047488.6    4845608.6 
    5500        1.375    10553.357     294087.9   -1628125.1    580642.63   -1047482.5    4832542.6 
    5600          1.4    10431.165    301394.76   -1621395.1    573919.67   -1047475.4    4819476.6 
    5700        1.425    10306.876    308419.81   -1614571.1    567081.33   -1047489.8    4806410.7 
    5800         1.45    10192.707    316124.41   -1608308.9    560799.77   -1047509.1    4793344.7 
    5900        1.475    10083.858    323922.24   -1602316.1    554810.93   -1047505.1    4780278.8 
    6000          1.5    9981.5581    331830.79   -1596665.6    549182.43   -1047483.2    4767212.8 
    6100        1.525     9898.884    339677.56   -1592105.3    544633.72   -1047471.5    4754146.9 
    6200         1.55    9818.1747    347544.59     -1587683    540193.12   -1047489.8    4741080.9 
    6300        1.575    9746.9807    355727.37   -1583786.2    536276.05   -1047510.1      4728015 
    6400          1.6    9689.7799    363585.44   -1580645.5    533128.88   -1047516.6      4714949 
    6500        1.625    9640.1055    370975.43     -1577912    530395.81   -1047516.2    4701883.1 
    6600         1.65    9589.2048    378724.87   -1575120.8    527595.27   -1047525.5    4688817.1 
    6700        1.675    9534.5011    386798.74   -1572128.8    524585.48   -1047543.3    4675751.1 
    6800          1.7    9481.1357    394941.81   -1569191.8    521649.33   -1047542.5    4662685.2 
    6900        1.725    9435.5964    403157.48   -1566666.1    519143.77   -1047522.3    4649619.2 
    7000         1.75    9382.4529    411509.49   -1563723.4    516219.84   -1047503.6    4636553.3 
    7100        1.775    9331.4443     420048.9   -1560907.7    513413.36   -1047494.4    4623487.3 
    7200          1.8    9272.7646    428714.74     -1557666    510184.82   -1047481.2    4610421.4 
    7300        1.825    9203.2315    438293.06   -1553806.6    506359.13   -1047447.5    4597355.4 
    7400         1.85    9106.1756    449004.19   -1548442.8    501019.14   -1047423.7    4584289.5 
    7500        1.875    9001.6585    459847.19   -1542701.4    495268.64   -1047432.8    4571223.5 
    7600          1.9    8883.4051    470931.49   -1536212.5    488762.37   -1047450.1    4558157.6 
    7700        1.925    8757.2843    481825.56   -1529271.6    481823.24   -1047448.3    4545091.6 
    7800         1.95     8620.106     492530.3   -1521716.1    474275.73   -1047440.4    4532025.6 
    7900        1.975    8488.5495    503188.46   -1514484.5    467037.53   -1047446.9    4518959.7 
    8000            2    8355.0793    513924.47   -1507146.3    459694.04   -1047452.3    4505893.7 
    8100        2.025    8280.3009    520720.73   -1503011.5    455579.75   -1047431.7    4492827.8 
    8200         2.05    8268.4164    522570.45     -1502320    454925.87   -1047394.1    4479761.8 
    8300        2.075    8202.3553    523308.21   -1498675.1    451291.21   -1047383.9    4466695.9 
    8400          2.1    8169.3115    524020.29   -1496874.9    449473.15   -1047401.7    4453629.9 
    8500        2.125    8177.3226    525672.63   -1497322.1    449913.92   -1047408.2      4440564 
    8600         2.15    8113.4428    526927.88   -1493785.7    446399.27   -1047386.5      4427498 
    8700        2.175    8128.4787    526165.21   -1494588.3    447226.54   -1047361.7    4414432.1 
    8800          2.2    8080.0247    524983.09   -1491922.7    444560.61   -1047362.1    4401366.1 
    8900        2.225    8023.1899    525749.67   -1488802.8    441433.58   -1047369.2    4388300.1 
    9000         2.25    8028.7458    527946.29   -1489093.7    441739.27   -1047354.4    4375234.2 
    9100        2.275    7924.5883    531986.75   -1483340.5    436008.55     -1047332    4362168.2 
    9200          2.3    7900.4584    535762.57   -1482011.3    434680.93   -1047330.3    4349102.3 
    9300        2.325    7789.1055    540591.92   -1475915.9    428554.32   -1047361.5    4336036.3 
    9400         2.35    7639.0724    549906.84   -1467689.1    420299.55   -1047389.5    4322970.4 
    9500        2.375    7524.2363    557494.92   -1461365.1     413981.3   -1047383.8    4309904.4 
    9600          2.4     7368.556    566305.49   -1452784.4    405415.82   -1047368.6    4296838.5 
    9700        2.425    7268.3158    577309.36   -1447288.3    399900.63   -1047387.7    4283772.5 
    9800         2.45    7174.9006    584326.95   -1442190.6    394760.95   -1047429.6    4270706.6 
    9900        2.475    7093.7586    589934.49   -1437730.3    390296.54   -1047433.8    4257640.6 
   10000          2.5    7061.0946    597292.67     -1435886    388499.38   -1047386.6    4244574.6 
   10100        2.525    7032.4934     604604.9   -1434263.8    386925.75   -1047338.1    4231508.7 
   10200         2.55    7022.5053    610157.97   -1433707.6    386376.21   -1047331.4    4218442.7 
   10300        2.575    7000.4783    616551.09   -1432513.9    385164.28   -1047349.6    4205376.8 
   10400          2.6    6978.4317    624346.71   -1431297.4    383951.29   -1047346.2    4192310.8 
   10500        2.625    6965.3757    632455.53   -1430552.9    383232.95   -1047319.9    4179244.9 
   10600         2.65    6934.9941    641824.83   -1428869.6    381561.36   -1047308.2    4166178.9 
   10700        2.675    6900.5078    652102.08   -1426976.9    379663.94     -1047313      4153113 
   10800          2.7    6861.2324    662143.06     -1424808    377503.02     -1047305      4140047 
   10900        2.725    6795.7329    674574.98   -1421177.7    373899.25   -1047278.5    4126981.1 
   11000         2.75    6685.9181    689792.13   -1415111.9    367857.27   -1047254.6    4113915.1 
   11100        2.775    6549.7966    705294.07   -1407609.2    360367.91   -1047241.3    4100849.1 
   11200          2.8       6429.2    720809.03   -1400959.6    353732.72   -1047226.9    4087783.2 
   11300        2.825    6287.7524     736922.6     -1393172    345950.32   -1047221.6    4074717.2 
   11400         2.85    6167.4542    751786.17   -1386564.5    339331.54   -1047232.9    4061651.3 
   11500        2.875    6056.7652     764561.8   -1380488.1    333241.46   -1047246.6    4048585.3 
   11600          2.9    5963.4787    773999.19   -1375366.3    328108.87   -1047257.4    4035519.4 
   11700        2.925    5870.6714    780277.45   -1370272.8    323002.64   -1047270.2    4022453.4 
   11800         2.95    5788.9715    785897.34   -1365789.1    318507.53   -1047281.6    4009387.5 
   11900        2.975    5716.8412    791561.57   -1361832.5    314538.95   -1047293.5    3996321.5 
   12000            3    5648.5344    797837.83     -1358090    310780.72   -1047309.3    3983255.6 
   12100        3.025    5574.4994    804830.23   -1354037.8    306707.34   -1047330.5    3970189.6 
   12200         3.05    5501.3986    812330.06   -1350034.4    302685.36     -1047349    3957123.6 
   12300        3.075    5411.3975    820768.28   -1345083.9    297733.52   -1047350.4    3944057.7 
   12400          3.1    5312.2558    829540.28   -1339619.5    292278.77   -1047340.8    3930991.7 
   12500        3.125    5198.6529    839022.57   -1333362.2    286028.38   -1047333.9    3917925.8 
   12600         3.15    5076.6399    848796.13   -1326648.3    279315.26     -1047333    3904859.8 
   12700        3.175    4947.7908    858879.45   -1319562.6    272226.01   -1047336.6    3891793.9 
   12800          3.2    4804.4654    870030.46   -1311682.5    264340.29   -1047342.2    3878727.9 
   12900        3.225    4672.4423    880310.55   -1304421.9    257076.42   -1047345.5      3865662 
   13000         3.25    4587.0113    888045.56   -1299714.4    252376.03   -1047338.4      3852596 
   13100        3.275    4474.5692    895950.66     -1293518     246189.5   -1047328.5    3839530.1 
   13200          3.3    4370.5885    905559.16   -1287802.9    240468.51   -1047334.4    3826464.1 
   13300        3.325    4305.4684    915936.25   -1284237.5    236885.62   -1047351.9    3813398.1 
   13400         3.35    4214.3008    926776.47   -1279223.8    231869.61   -1047354.2    3800332.2 
   13500        3.375    4136.5099    937104.12   -1274920.1    227589.57   -1047330.5    3787266.2 
   13600          3.4    4111.8135     945980.1   -1273533.4    226230.79   -1047302.6    3774200.3 
   13700        3.425    4040.7167    955332.08   -1269615.4    222319.06   -1047296.3    3761134.3 
   13800         3.45    4059.1125    963124.96   -1270646.4    223331.19   -1047315.2    3748068.4 
   13900        3.475    4074.9697    970761.75   -1271546.9    224203.65   -1047343.3    3735002.4 
   14000          3.5    4057.8753    979294.85   -1270620.3    223263.12   -1047357.2    3721936.5 
   14100        3.525    4079.3515    986314.87   -1271791.3    224444.74   -1047346.5    3708870.5 
   14200         3.55     4080.305    993663.44   -1271822.4     224497.2   -1047325.2    3695804.6 
   14300        3.575    4081.1199    1002792.4   -1271853.1    224542.04   -1047311.1    3682738.6 
   14400          3.6    4047.7084    1012811.7   -1270012.6    222703.74   -1047308.8    3669672.6 
   14500        3.625    4013.0949    1021851.2   -1268115.2    220799.32   -1047315.9    3656606.7 
   14600         3.65    3962.8425    1031060.6   -1265362.4    218034.44     -1047328    3643540.7 
   14700        3.675    3906.6488    1040175.7   -1262274.3    214942.68   -1047331.6    3630474.8 
   14800          3.7     3853.789    1048962.1   -1259354.3    212034.35     -1047320    3617408.8 
   14900        3.725    3745.9712    1056719.2   -1253410.5    206102.25   -1047308.2    3604342.9 
   15000         3.75    3681.1621    1064885.5   -1249849.3    202536.47   -1047312.9    3591276.9 
   15100        3.775    3612.8039    1072884.2   -1246094.7    198775.43   -1047319.3      3578211 
   15200          3.8    3544.4816    1080583.8   -1242345.5    195016.35   -1047329.2      3565145 
   15300        3.825    3477.8526    1089405.1   -1238683.2    191350.44   -1047332.8    3552079.1 
   15400         3.85    3417.2332    1098744.8     -1235344    188015.18   -1047328.8    3539013.1 
   15500        3.875    3355.9191    1106797.9   -1231975.1    184641.69   -1047333.4    3525947.1 
   15600          3.9    3293.4807    1115947.4   -1228562.8    181206.36   -1047356.5    3512881.2 
   15700        3.925    3203.2088    1125963.4     -1223636    176239.62   -1047396.4    3499815.2 
   15800         3.95    3125.3964    1136046.4   -1219372.6     171958.4   -1047414.2    3486749.3 
   15900        3.975     3035.557    1146553.3   -1214383.8    167015.47   -1047368.3    3473683.3 
   16000            4    2950.1453    1157497.2   -1209533.1    162316.14     -1047217    3460617.4 
   16100        4.025    2848.8728    1168691.3   -1203667.8    156744.15   -1046923.7    3447551.4 
   16200         4.05    2741.2896    1181917.8   -1197338.6    150824.96   -1046513.7    3434485.5 
   16300        4.075    2692.5103    1204908.6   -1187086.4    148141.13   -1038945.3    3421419.5 
   16400          4.1    2846.6406    1238842.1     -1166008    156621.34   -1009386.6    3408353.6 
   16500        4.125     3145.603    1278541.6   -1146355.8    173070.16   -973285.61    3395287.6 
   16600         4.15    3338.1907    1317395.1   -1125481.1    183666.28   -941814.84    3382221.6 
   16700        4.175    3390.8559    1354654.2     -1101994    186563.91    -915430.1    3369155.7 
   16800          4.2    3492.0918    1393108.7   -1078871.5    192133.88   -886737.59    3356089.7 
   16900        4.225     3644.097    1432362.8   -1055636.9    200497.16    -855139.7    3343023.8 
   17000         4.25    3805.1406    1472269.4   -1032380.4    209357.73   -823022.65    3329957.8 
   17100        4.275    4001.1659    1511444.5     -1010624    220142.99   -790480.97    3316891.9 
   17200          4.3    4259.2587    1548426.5   -992174.04    234343.18   -757830.86    3303825.9 
   17300        4.325    4532.2401    1579492.9   -975089.62    249362.54   -725727.08      3290760 
   17400         4.35    4799.2089    1608165.5   -956372.27    264051.08   -692321.19      3277694 
   17500        4.375    5076.4213    1640507.8   -936921.02    279303.23   -657617.79    3264628.1 
   17600          4.4    5242.9769    1680385.9   -913106.21    288467.07   -624639.14    3251562.1 
   17700        4.425    5345.8903      1721847   -887763.34    294129.33      -593634    3238496.1 
   17800         4.45     5402.677    1758578.5    -861810.3    297253.72   -564556.58    3225430.2 
   17900        4.475    5374.0291      1797120   -834872.94    295677.52   -539195.42    3212364.2 
   18000          4.5    5307.7257    1835274.4   -809949.71    292029.53   -517920.18    3199298.3 
   18100        4.525    5276.4309    1872736.9   -787201.36     290307.7   -496893.66    3186232.3 
   18200         4.55    5327.7933    1907921.4   -766922.65    293133.64   -473789.01    3173166.4 
   18300        4.575    5481.9159    1942620.6    -749238.9    301613.42   -447625.48    3160100.4 
   18400          4.6    5716.9538    1978954.8   -732045.67    314545.14   -417500.53    3147034.5 
   18500        4.625    6070.9362    2017362.4   -715939.64    334021.15   -381918.49    3133968.5 
   18600         4.65    6530.7876    2058163.9   -700699.67    359322.04   -341377.63    3120902.6 
   18700        4.675     7056.903    2098386.3   -686520.51    388268.76   -298251.75    3107836.6 
   18800          4.7    7575.6928    2135423.1   -673536.91    416812.42   -256724.49    3094770.6 
   18900        4.725    8092.3125    2169825.1   -662225.68    445236.69   -216988.99    3081704.7 
   19000         4.75    8646.9483    2201963.3   -651839.81    475752.59   -176087.23    3068638.7 
   19100        4.775    9266.0258      2232882   -642317.42    509814.05   -132503.37    3055572.8 
   19200          4.8    9891.7932    2262274.6   -634431.49    544243.59   -90187.895    3042506.8 
   19300        4.825    10482.266    2289330.3   -627038.07    576731.26   -50306.812    3029440.9 
   19400         4.85    11039.345    2314657.8   -619095.82    607381.58   -11714.239    3016374.9 
   19500        4.875    11512.096    2341222.3   -607647.85    633392.16    25744.308      3003309 
   19600          4.9    11929.753      2369108   -596912.65    656371.56    59458.911      2990243 
   19700        4.925    12253.207    2399672.5   -583192.27    674167.92    90975.644    2977177.1 
   19800         4.95    12531.116      2437334   -568248.29    689458.39     121210.1    2964111.1 
   19900        4.975    12764.462    2480270.8    -551250.7    702296.99    151046.29    2951045.1 
   20000            5    12937.221    2524315.9    -532284.6    711802.16    179517.56    2937979.2 
   20100        5.025    13071.572    2567561.2   -511774.64     719194.1    207419.47    2924913.2 
   20200         5.05    13178.877    2610582.6   -490129.61    725097.98    234968.37    2911847.3 
   20300        5.075    13275.412    2653692.9   -467505.39    730409.31    262903.92    2898781.3 
   20400          5.1    13331.633    2696133.7   -443483.39    733502.58    290019.19    2885715.4 
   20500        5.125    13362.311    2740161.8   -417907.84    735190.47    317282.64    2872649.4 
   20600         5.15      13361.6    2786226.4    -391367.5    735151.33    343783.83    2859583.5 
   20700        5.175    13345.985    2832651.6   -364328.28    734292.22    369963.94    2846517.5 
   20800          5.2    13348.417    2879222.7   -338906.49    734426.03    395519.54    2833451.6 
   20900        5.225    13329.003    2925903.7    -313236.3    733357.89    420121.59    2820385.6 
   21000         5.25    13342.274      2972629   -289500.25    734088.07    444587.81    2807319.6 
   21100        5.275    13344.095    3018038.3   -266254.93    734188.26    467933.32    2794253.7 
   21200          5.3    13374.567    3062714.4    -244652.2    735864.82    491212.61    2781187.7 
   21300        5.325    13420.722    3105413.1   -224908.67    738404.21    513495.55    2768121.8 
   21400         5.35    13501.558    3145479.9   -207495.56    742851.82    535356.26    2755055.8 
   21500        5.375    13605.876    3182233.1   -192828.69    748591.37    555762.68    2741989.9 
   21600          5.4    13738.948    3214924.2   -180223.03    755912.91    575689.88    2728923.9 
   21700        5.425    13875.823    3243377.4   -168809.47    763443.76    594634.29      2715858 
   21800         5.45    14041.406    3272213.3   -159843.88    772554.08    612710.19      2702792 
   21900        5.475    14201.806    3303920.3   -150752.18    781379.25    630627.07    2689726.1 
   22000          5.5    14381.406      3337551   -143012.36    791260.77    648248.41    2676660.1 
   22100        5.525    14568.679    3374532.7   -134935.88    801564.48     666628.6    2663594.1 
   22200         5.55    14742.205    3414179.1   -125222.15    811111.84    685889.69    2650528.2 
   22300        5.575    14942.164      3455399   -114950.53    822113.51    707162.98    2637462.2 
   22400          5.6    15141.635    3499192.1   -102075.22    833088.37    731013.15    2624396.3 
   22500        5.625     15377.13    3546717.4   -88812.549    846045.22    757232.67    2611330.3 
   22600         5.65    15625.985      3598959   -73013.105    859737.17    786724.07    2598264.4 
   22700        5.675    15905.119    3654479.3   -56520.529    875095.05    818574.52    2585198.4 
   22800          5.7    16160.912    3710958.6   -37334.056    889168.68    851834.63    2572132.5 
   22900        5.725    16379.962    3771968.3   -15966.489    901220.75    885254.26    2559066.5 
   23000         5.75     16415.23    3838354.1    15461.116    903161.17    918622.29    2546000.6 
   23100        5.775    16313.294    3920010.6    55685.287     897552.7    953237.98    2532934.6 
   23200          5.8    16164.154    4008928.6    99636.451    889347.07    988983.52    2519868.6 
   23300        5.825    15934.626    4104985.4    148115.01    876718.51    1024833.5    2506802.7 
   23400         5.85    15699.972    4202187.5    197206.35    863807.93    1061014.3    2493736.7 
   23500        5.875    15540.328    4294363.8    241487.52    855024.31    1096511.8    2480670.8 
   23600          5.9    15402.119    4379899.8    285591.19    847420.13    1133011.3    2467604.8 
   23700        5.925    15292.899    4464241.3    327096.07    841410.89      1168507    2454538.9 
   23800         5.95    15148.541    4559026.9    370479.41    833468.35    1203947.8    2441472.9 
   23900        5.975    14990.618    4657869.5    413934.53    824779.45      1238714      2428407 
   24000            6    14872.428    4754450.4    456141.94     818276.7    1274418.6      2415341 
   24100        6.025    14759.447    4853488.7    497666.56     812060.5    1309727.1    2402275.1 
   24200         6.05    14757.741    4953915.3    533902.35    811966.63      1345869    2389209.1 
   24300        6.075    14773.544    5052782.9    569676.66    812836.08    1382512.7    2376143.1 
   24400          6.1    14880.084      5150417    599890.93    818697.88    1418588.8    2363077.2 
   24500        6.125    14963.297    5246150.8    631592.82    823276.27    1454869.1    2350011.2 
   24600         6.15    15076.962    5338143.1    660700.79    829530.05    1490230.8    2336945.3 
   24700        6.175    15221.568    5423987.3    687983.99    837486.25    1525470.2    2323879.3 
   24800          6.2     15359.86    5504740.3    714287.92    845095.07      1559383    2310813.4 
   24900        6.225    15428.331    5580493.4    744294.18    848862.32    1593156.5    2297747.4 
   25000         6.25    15355.682    5659299.4    780644.63    844865.17    1625509.8    2284681.5 
   25100        6.275    15095.603    5766356.3    825839.17    830555.69    1656394.9    2271615.5 
   25200          6.3    14726.918    5888143.8    876274.57    810270.77    1686545.3    2258549.5 
   25300        6.325    14260.447    6007528.3    930314.15    784605.68    1714919.8    2245483.6 
   25400         6.35    13815.457    6135521.5    982634.98    760122.41    1742757.4    2232417.6 
   25500        6.375     13299.87    6269495.4    1037151.7    731754.98    1768906.7    2219351.7 
   25600          6.4    12739.447    6406807.5    1093955.5    700920.68    1794876.2    2206285.7 
   25700        6.425    12182.296    6548768.4    1149894.9     670266.4    1820161.3    2193219.8 
   25800         6.45    11617.239    6687833.6      1205260    639177.14    1844437.1    2180153.8 
   25900        6.475    11112.259    6823508.9    1257420.2    611393.28    1868813.5    2167087.9 
   26000          6.5     10753.99    6940612.8    1300841.4     591681.4    1892522.8    2154021.9 
   26100        6.525    10506.886    7039045.3    1338754.6    578085.82    1916840.4      2140956 
   26200         6.55    10388.945    7124707.7    1370163.1    571596.74    1941759.8      2127890 
   26300        6.575    10201.976    7229754.4    1405441.2    561309.77      1966751      2114824 
   26400          6.6    10056.896    7351276.5    1439074.3    553327.49    1992401.8    2101758.1 
   26500        6.625    9906.5536    7476806.8    1473818.9    545055.71    2018874.6    2088692.1 
   26600         6.65    9779.9885    7600534.1    1508979.6    538092.13    2047071.7    2075626.2 
   26700        6.675    9647.5034    7742067.6    1549992.2    530802.84    2080795.1    2062560.2 
   26800          6.7    9650.9434    7917949.5    1607631.7    530992.11    2138623.8    2049494.3 
   26900        6.725    10081.309    8145924.2    1691004.5    554670.71    2245675.2    2036428.3 
   27000         6.75    10795.134    8390655.4    1775233.3    593945.16    2369178.5    2023362.4 
   27100        6.775    11041.637    8621269.4    1862692.5    607507.65    2470200.2    2010296.4 
   27200          6.8    11563.414    8847276.6    1950201.6     636215.7    2586417.2    1997230.5 
   27300        6.825    12247.717    9075178.8    2036535.7    673865.81    2710401.5    1984164.5 
   27400         6.85    12501.764    9323842.4    2130227.2    687843.42    2818070.7    1971098.5 
   27500        6.875    12863.128    9577667.1    2220838.4    707725.54      2928564    1958032.6 
   27600          6.9    13327.975    9824570.3    2304906.1    733301.31    3038207.4    1944966.6 
   27700        6.925    13941.882     10073043    2378218.5     767078.3    3145296.8    1931900.7 
   27800         6.95    14860.951     10330960    2449241.7    817645.19    3266886.9    1918834.7 
   27900        6.975    15951.394     10587637    2517681.5     877641.1    3395322.6    1905768.8 
   28000            7    17027.412     10832869    2583446.4    936843.25    3520289.7    1892702.8 
   28100        7.025    18175.774     11066811    2645728.2    1000025.8    3645754.1    1879636.9 
   28200         7.05    18916.149     11322012      2726266      1040761      3767027    1866570.9 
   28300        7.075    19220.999     11611375    2824732.4    1057533.8    3882266.2      1853505 
   28400          7.1    19316.213     11907565    2930142.8    1062772.5    3992915.3      1840439 
   28500        7.125    19307.243     12204213    3034854.1    1062278.9      4097133      1827373 
   28600         7.15    19156.165     12514785    3145704.6    1053966.7    4199671.3    1814307.1 
   28700        7.175    19049.202     12831935    3255390.3    1048081.6    4303471.8    1801241.1 
   28800          7.2    19045.167     13133058      3357435    1047859.6    4405294.6    1788175.2 
   28900        7.225    19300.464     13410060    3443470.1    1061905.9      4505376    1775109.2 
   29000         7.25    19717.561     13671863    3518108.2    1084854.5    4602962.6    1762043.3 
   29100        7.275    20082.565     13944793    3591574.8    1104936.9    4696511.7    1748977.3 
   29200          7.3    20414.523     14237912      3665867    1123201.1    4789068.1    1735911.4 
   29300        7.325    20724.672     14540815    3748132.6    1140265.5    4888398.1    1722845.4 
   29400         7.35     20823.67     14878560    3858004.2    1145712.3    5003716.5    1709779.5 
   29500        7.375     20737.01     15274067    4001454.5    1140944.3    5142398.7    1696713.5 
   29600          7.4    20797.748     15675968    4145297.3    1144286.1    5289583.4    1683647.5 
   29700        7.425    20654.003     16077672    4294088.5    1136377.2    5430465.7    1670581.6 
   29800         7.45    20465.883     16495435    4446908.8    1126026.9    5572935.7    1657515.6 
   29900        7.475    20275.336     16914234    4599377.5    1115543.1    5714920.6    1644449.7 
   30000          7.5    20112.331     17327832    4742673.2    1106574.6    5849247.8    1631383.7 
   30100        7.525    20264.773     17740186    4867661.4      1114962    5982623.3    1618317.8 
   30200         7.55    20482.773     18152404    4992991.3    1126956.2    6119947.5    1605251.8 
   30300        7.575    20856.767     18566408    5109935.4    1147533.3    6257468.7    1592185.9 
   30400          7.6    20956.952     18997744    5239803.5    1153045.4    6392848.9    1579119.9 
   30500        7.625    20371.085     19470246    5403606.1    1120811.2    6524417.3      1566054 
   30600         7.65    19532.412     19943616    5573908.5    1074667.6    6648576.2      1552988 
   30700        7.675    18450.391     20419280    5750062.3    1015135.2    6765197.4      1539922 
   30800          7.7    17250.854     20902181    5929098.6    949136.98    6878235.6    1526856.1 
   30900        7.725    16249.065     21385568    6093330.6    894018.87    6987349.4    1513790.1 
   31000         7.75    15661.247     21850725    6234697.9    861677.26    7096375.2    1500724.2 
   31100        7.775    15330.252     22343265    6367274.2    843466.02    7210740.2    1487658.2 
   31200          7.8    15187.444     22849563    6503822.5    835608.77    7339431.3    1474592.3 
   31300        7.825    15202.548     23397058    6670431.6    836439.76    7506871.4    1461526.3 
   31400         7.85    15766.841     24048747    6884955.2    867487.03    7752442.2    1448460.4 
   31500        7.875    16726.339     24764297    7110320.8    920278.29    8030599.1    1435394.4 
   31600          7.9    17290.686     25456273    7339341.6    951328.54    8290670.1    1422328.5 
   31700        7.925    18090.408     26162356    7569399.6    995329.03    8564728.6    1409262.5 
   31800         7.95    19006.133     26900514      7786870    1045711.9    8832581.9    1396196.5 
   31900        7.975    20299.963     27625531      7985707    1116898.1    9102605.1    1383130.6 
   32000            8     22063.86     28389087    8182289.1    1213947.2    9396236.3    1370064.6 
   32100        8.025    23476.019     29168156    8388284.2    1291643.8      9679928    1356998.7 
   32200         8.05    23926.926     29919854    8636266.6    1316452.5    9952719.1    1343932.7 
   32300        8.075    24016.136     30748136    8896412.6    1321360.8     10217773    1330866.8 
   32400          8.1    23812.422     31588936    9157789.2    1310152.5     10467942    1317800.8 
   32500        8.125    23875.902     32438679    9407138.5    1313645.2     10720784    1304734.9 
   32600         8.15    24569.868     33270288    9624010.5      1351827     10975838    1291668.9 
   32700        8.175    25195.872     34058202    9838561.2    1386269.5     11224831      1278603 
   32800          8.2    25358.607     34954759     10087886    1395223.2     11483110      1265537 
   32900        8.225    25213.773     35978111     10392486    1387254.5     11779741      1252471 
   33000         8.25    25424.813     36960905     10711934    1398865.9     12110800    1239405.1 
   33100        8.275    25425.473     37905441     11038046    1398902.1     12436948    1226339.1 
   33200          8.3     25273.12     38913945     11359823    1390519.7     12750343    1213273.2 
   33300        8.325    25586.694     40015789     11653163    1407772.5     13060935    1200207.2 
   33400         8.35    25782.369     41098003     11948415    1418538.5     13366954    1187141.3 
   33500        8.375    25557.603     42119679     12273649    1406171.9     13679821    1174075.3 
   33600          8.4    24502.831     43212035     12635438    1348138.7     13983577    1161009.4 
   33700        8.425    22996.654     44416089     13001776    1265269.2     14267046    1147943.4 
   33800         8.45    21633.225     45588056     13353748    1190253.8     14544001    1134877.5 
   33900        8.475    21123.733     46667104     13670777    1162221.7     14832999    1121811.5 
   34000          8.5     21161.21     47906866     14006648    1164283.6     15170932    1108745.5 
   34100        8.525    21816.681     49324668     14411912    1200347.5     15612259    1095679.6 
   34200         8.55    22898.523     50743205     14846469    1259870.1     16106339    1082613.6 
   34300        8.575     23555.41     52157073     15293876    1296011.8     16589887    1069547.7 
   34400          8.6    24925.355     53640415     15719373    1371385.8     17090759    1056481.7 
   34500        8.625    27174.454     55193915     16125843    1495130.6     17620973    1043415.8 
   34600         8.65    29033.288     56790875     16556943    1597403.1     18154346    1030349.8 
   34700        8.675    29658.488     58356515     17030461    1631801.4     18662263    1017283.9 
   34800          8.7    29617.493     59869676     17515900    1629545.9     19145445    1004217.9 
   34900        8.725    29804.972     61485707     17983115    1639860.9     19622976    991151.96 
   35000         8.75    30655.142     63195338     18423294      1686637     20109931       978086 
   35100        8.775    31056.671     64890524     18912036      1708729     20620765    965020.05 
   35200          8.8    31226.875     66740350     19464538    1718093.6     21182632    951954.09 
   35300        8.825    31554.505     68724195     20036429    1736119.7     21772549    938888.14 
   35400         8.85    31746.141     70692958     20592774    1746663.5     22339438    925822.18 
   35500        8.875    31997.819     72696806     21135981    1760510.7     22896492    912756.23 
   35600          8.9    31666.186     74828414     21718904    1742264.4     23461168    899690.27 
   35700        8.925    30356.487     77001500     22337987    1670205.1     24008193    886624.32 
   35800         8.95    28977.266     79214517     22952321    1594320.8     24546642    873558.36 
   35900        8.975    28560.826     81544076     23540890    1571408.4     25112298    860492.41 
   36000            9    29110.272     84072328     24186418    1601638.7     25788056    847426.46 
   36100        9.025    30614.137     86910224     24904416      1684381     26588797     834360.5 
   36200         9.05    32478.466     89899482     25628476    1786955.8     27415432    821294.55 
   36300        9.075    35133.814     92957086     26330838    1933052.3     28263890    808228.59 
   36400          9.1    37026.301     96140558     27075733    2037176.4     29112910    795162.64 
   36500        9.125    37541.713     99440771     27861613    2065534.1     29927147    782096.68 
   36600         9.15    38275.553 1.0280731e+08     28633150    2105909.8     30739060    769030.73 
   36700        9.175    39288.286 1.0637233e+08     29417456    2161630.1     31579086    755964.77 
   36800          9.2    39575.364 1.1019891e+08     30306013    2177425.1     32483438    742898.82 
   36900        9.225    40047.879 1.142412e+08     31214790    2203422.7     33418213    729832.86 
   37000         9.25    40430.776 1.1839286e+08     32110804    2224489.6     34335293    716766.91 
   37100        9.275     39451.53 1.2273323e+08     33071623    2170611.7     35242235    703700.96 
   37200          9.3    37900.833 1.2723537e+08     34060002    2085292.8     36145295       690635 
   37300        9.325    37883.066 1.3211506e+08     35041000    2084315.3     37125315    677569.05 
   37400         9.35     39506.66 1.3752053e+08     36139682      2173645     38313327    664503.09 
   37500        9.375    42269.307 1.4340206e+08     37271813      2325645     39597458    651437.14 
   37600          9.4    44981.384 1.4947993e+08     38412006    2474862.7     40886869    638371.18 
   37700        9.425    46429.555 1.5592895e+08     39619803    2554540.7     42174343    625305.23 
   37800         9.45    47599.629 1.626014e+08     40841313    2618917.8     43460231    612239.27 
   37900        9.475    48085.551 1.6978714e+08     42170557    2645653.1     44816210    599173.32 
   38000          9.5     48745.98 1.7748589e+08     43554717    2681989.7     46236706    586107.36 
   38100        9.525    48418.172 1.8556693e+08     44983851    2663953.8     47647805    573041.41 
   38200         9.55    47069.075 1.9413405e+08     46472341    2589726.8     49062067    559975.45 
   38300        9.575    47633.641 2.0346832e+08     48019086    2620789.1     50639875     546909.5 
   38400          9.6     50812.74 2.1396637e+08     49701476    2795702.2     52497178    533843.55 
   38500        9.625    54145.008 2.2506647e+08     51420238    2979042.6     54399281    520777.59 
   38600         9.65    56171.121 2.3692957e+08     53229655    3090518.8     56320174    507711.64 
   38700        9.675    57237.989 2.4955549e+08     55132502    3149217.6     58281720    494645.68 
   38800          9.7    58124.674 2.6332759e+08     57163248    3198002.7     60361250    481579.73 
   38900        9.725     57512.63 2.7793724e+08     59283424    3164328.2     62447752    468513.77 
   39000         9.75    57597.774 2.939063e+08     61515090    3169012.8     64684103    455447.82 
   39100        9.775    61402.774 3.1188484e+08     63923762    3378362.8     67302125    442381.86 
   39200          9.8    65366.632 3.3142095e+08     66447731    3596453.1     70044184    429315.91 
   39300        9.825    67539.896 3.5256824e+08     69106733    3716025.5     72822759    416249.95 
   39400         9.85    67995.358 3.7569135e+08     72000746    3741084.9     75741831       403184 
   39500        9.875    68100.909 4.0106579e+08     75043402    3746892.2     78790294    390118.05 
   39600          9.9    70476.159 4.2952017e+08     78319615    3877577.8     82197193    377052.09 
   39700        9.925    75961.275 4.6152165e+08     81832932    4179367.3     86012299    363986.14 
   39800         9.95    78321.282 4.9657736e+08     85590346    4309214.2     89899560    350920.18 
   39900        9.975    79142.806 5.3555426e+08     89667022    4354414.2     94021437    337854.23 
   40000           10    80700.195 5.7949687e+08     94064238    4440101.3     98504339    324788.27 
   40100       10.025    87294.323 6.2984444e+08     98840757    4802908.3 1.0364367e+08    311722.32 
   40200        10.05    89771.381 6.8618557e+08 1.0402221e+08    4939195.3 1.089614e+08    298656.36 
   40300       10.075    91353.936 7.5014195e+08 1.0968046e+08      5026267 1.1470673e+08    285590.41 
   40400         10.1    97660.185 8.2462254e+08 1.1589312e+08      5373235 1.2126636e+08    272524.45 
   40500       10.125    102257.89 9.1015286e+08 1.2272307e+08    5626199.4 1.2834927e+08     259458.5 
   40600        10.15    106010.07 1.0091686e+09 1.3026546e+08    5832643.1 1.3609811e+08    246392.55 
   40700       10.175     114685.5 1.1264086e+09 1.3868276e+08    6309962.7 1.4499273e+08    233326.59 
   40800         10.2    117680.12 1.2638917e+09 1.4809663e+08      6474726 1.5457136e+08    220260.64 
   40900       10.225    127623.51 1.4298657e+09 1.5871531e+08    7021808.5 1.6573712e+08    207194.68 
   41000        10.25    133508.75 1.6288475e+09 1.707456e+08    7345612.9 1.7809122e+08    194128.73 
   41100       10.275    144862.58 1.8738729e+09 1.8454701e+08    7970297.3 1.9251731e+08    181062.77 
   41200         10.3     154382.8 2.1777508e+09 2.0050256e+08    8494096.8 2.0899666e+08    167996.82 
   41300       10.325    167072.91 2.5622296e+09 2.1915619e+08    9192303.2 2.2834849e+08    154930.86 
   41400        10.35    182765.94 3.0591895e+09 2.4128817e+08     10055729 2.5134389e+08    141864.91 
   41500       10.375    201476.67 3.7151302e+09 2.6791741e+08     11085188 2.7900259e+08    128798.95 
   41600         10.4    224157.87 4.6060878e+09 3.0056995e+08     12333101 3.1290305e+08       115733 
   41700       10.425     255077.9 5.8556505e+09 3.4142609e+08     14034312 3.554604e+08    102667.04 
   41800        10.45    300220.81 7.6751168e+09 3.9376058e+08     16518062 4.1027864e+08     89601.09 
   41900       10.475    358486.55 1.0505128e+10 4.6380193e+08     19723826 4.8352576e+08    76535.136 
ERROR: Lost atoms: original 425652 current 425633 (../thermo.cpp:439)
Last command: run 50000
