LAMMPS (29 Sep 2021)
  using 1 OpenMP thread(s) per MPI task
Reading data file ...
  orthogonal box = (0.59103387 0.59501561 0.0000000) to (99.929056 99.925075 535.86400)
  3 by 2 by 16 MPI processor grid
  reading atoms ...
  444900 atoms
  reading velocities ...
  444900 velocities
  read_data CPU = 4.543 seconds
222450 atoms in group g_left
222450 atoms in group g_right

CITE-CITE-CITE-CITE-CITE-CITE-CITE-CITE-CITE-CITE-CITE-CITE-CITE

Your simulation uses code contributions which should be cited:
- @article{cjiang2012
The log file lists these citations in BibTeX format.

CITE-CITE-CITE-CITE-CITE-CITE-CITE-CITE-CITE-CITE-CITE-CITE-CITE

Neighbor list info ...
  update every 1 steps, delay 10 steps, check yes
  max neighbors/atom: 2000, page size: 100000
  master list distance cutoff = 8.28721
  ghost atom cutoff = 8.28721
  binsize = 4.143605, bins = 24 24 130
  3 neighbor lists, perpetual/occasional/extra = 3 0 0
  (1) pair eam/alloy, perpetual, skip from (3)
      attributes: half, newton on
      pair build: skip
      stencil: none
      bin: none
  (2) pair edip/multi, perpetual
      attributes: full, newton on
      pair build: full/bin/atomonly
      stencil: full/bin/3d
      bin: standard
  (3) neighbor class addition, perpetual, half/full from (2)
      attributes: half, newton on
      pair build: halffull/newton
      stencil: none
      bin: none
Setting up Verlet run ...
  Unit style    : metal
  Current step  : 0
  Time step     : 0.00025
Per MPI rank memory allocation (min/avg/max) = 9.981 | 12.82 | 15.98 Mbytes
Step Time Temp Press PotEng KinEng TotEng Volume 
       0            0    2095.0501    20853.253   -2213927.9    120481.53   -2093446.4    5287504.9 
     100        0.025     2094.529    20377.393   -2213912.6    120451.56     -2093461    5282571.3 
     200         0.05    2095.2257    21051.626   -2213948.6    120491.63   -2093456.9    5277637.7 
     300        0.075    2094.7418     20319.34   -2213912.2     120463.8   -2093448.4    5272704.1 
     400          0.1    2094.1652    19981.964   -2213889.4    120430.65   -2093458.7    5267770.4 
     500        0.125     2094.464    20905.368   -2213926.7    120447.83   -2093478.8    5262836.8 
     600         0.15    2094.6157    20712.622   -2213942.3    120456.55   -2093485.7    5257903.2 
     700        0.175     2094.198    19596.134   -2213913.7    120432.53   -2093481.2    5252969.6 
     800          0.2    2094.0498    20743.086   -2213907.5    120424.01   -2093483.5    5248035.9 
     900        0.225    2094.5423     20491.13   -2213952.3    120452.33     -2093500    5243102.3 
    1000         0.25    2093.8313    20468.282     -2213926    120411.44   -2093514.5    5238168.7 
    1100        0.275    2093.8686    20587.999   -2213928.6    120413.59     -2093515    5233235.1 
    1200          0.3     2094.122    20704.777   -2213935.9    120428.16   -2093507.7    5228301.4 
    1300        0.325    2093.5042    21285.972   -2213899.8    120392.63   -2093507.2    5223367.8 
    1400         0.35    2093.4428    21563.487   -2213896.9     120389.1   -2093507.8    5218434.2 
    1500        0.375    2094.2349    20174.883     -2213937    120434.65   -2093502.4    5213500.6 
    1600          0.4    2094.3446    21699.701   -2213941.6    120440.96   -2093500.6    5208566.9 
    1700        0.425    2093.9179    21623.409   -2213926.7    120416.42   -2093510.2    5203633.3 
    1800         0.45     2093.579    21078.016   -2213916.4    120396.93   -2093519.4    5198699.7 
    1900        0.475    2093.8449    21108.378   -2213923.9    120412.23   -2093511.7      5193766 
    2000          0.5     2094.082    20737.544   -2213917.8    120425.86   -2093491.9    5188832.4 
    2100        0.525    2094.4538    21458.518   -2213927.5    120447.24   -2093480.3    5183898.8 
    2200         0.55    2094.3678    20886.782     -2213925    120442.29   -2093482.8    5178965.2 
    2300        0.575     2094.659        21075   -2213947.2    120459.04   -2093488.2    5174031.5 
    2400          0.6    2093.7738    20963.753   -2213899.5    120408.13   -2093491.3    5169097.9 
    2500        0.625    2093.9752    20782.979     -2213921    120419.72   -2093501.2    5164164.3 
    2600         0.65    2094.0036    21206.401   -2213937.4    120421.35   -2093516.1    5159230.7 
    2700        0.675    2093.6626     20789.84   -2213923.6    120401.74   -2093521.9      5154297 
    2800          0.7    2093.5093    21370.296   -2213910.4    120392.93   -2093517.5    5149363.4 
    2900        0.725    2093.4486    20876.575     -2213905    120389.43   -2093515.6    5144429.8 
    3000         0.75    2094.0459    21378.796   -2213949.1    120423.78   -2093525.4    5139496.2 
    3100        0.775    2093.5149    21155.753   -2213927.5    120393.25   -2093534.2    5134562.5 
    3200          0.8     2093.643    21032.264   -2213930.3    120400.61   -2093529.7    5129628.9 
    3300        0.825    2093.2452    21371.227   -2213896.2    120377.74   -2093518.5    5124695.3 
    3400         0.85    2093.6149    22117.959   -2213912.3       120399   -2093513.3    5119761.7 
    3500        0.875    2093.6531    21457.846   -2213920.1    120401.19   -2093518.9      5114828 
    3600          0.9    2093.6538    21431.633   -2213927.6    120401.23   -2093526.4    5109894.4 
    3700        0.925    2093.5831    21407.048   -2213925.2    120397.17     -2093528    5104960.8 
    3800         0.95     2093.801    21344.198   -2213930.6     120409.7   -2093520.9    5100027.2 
    3900        0.975    2093.8016    21222.505   -2213922.7    120409.74   -2093512.9    5095093.5 
    4000            1    2093.6527    21418.245   -2213911.1    120401.17   -2093509.9    5090159.9 
    4100        1.025    2093.9668    21092.256   -2213931.8    120419.24   -2093512.6    5085226.3 
    4200         1.05     2093.579     21832.22   -2213913.3    120396.93   -2093516.3    5080292.7 
    4300        1.075     2093.963    21498.617   -2213932.2    120419.01   -2093513.2      5075359 
    4400          1.1      2093.87    21862.004   -2213918.2    120413.67   -2093504.6    5070425.4 
    4500        1.125    2094.8335    21496.721   -2213967.9    120469.07   -2093498.8    5065491.8 
    4600         1.15    2097.3597    21433.305   -2214110.8    120614.35   -2093496.4    5060558.2 
    4700        1.175    2101.2202    21993.394   -2214327.1    120836.36   -2093490.7    5055624.5 
    4800          1.2    2110.2404    20952.398   -2214838.2    121355.09   -2093483.1    5050690.9 
    4900        1.225    2114.4795    21337.268   -2215076.8    121598.87     -2093478    5045757.3 
    5000         1.25    2100.3896    22459.981     -2214263    120788.59   -2093474.4    5040823.6 
    5100        1.275     2094.388    24279.096   -2213910.6    120443.46   -2093467.2      5035890 
    5200          1.3     2084.896    26224.596     -2213357    119897.59   -2093459.4    5030956.4 
    5300        1.325    2077.6146    27926.768   -2212935.4    119478.85   -2093456.5    5026022.8 
    5400         1.35     2066.677    29941.489   -2212304.6    118849.86   -2093454.7    5021089.1 
    5500        1.375    2055.4819    31619.063   -2211659.5    118206.06   -2093453.5    5016155.5 
    5600          1.4    2042.2848     33279.42     -2210901    117447.12   -2093453.9    5011221.9 
    5700        1.425    2029.7938    36353.943   -2210182.4    116728.79   -2093453.6    5006288.3 
    5800         1.45    2018.0196    37898.376   -2209503.1    116051.68   -2093451.4    5001354.6 
    5900        1.475    2005.9378    40133.483     -2208808    115356.89   -2093451.1      4996421 
    6000          1.5    1992.3464     41830.96   -2208031.4    114575.28   -2093456.1    4991487.4 
    6100        1.525    1980.3993    44221.154   -2207350.5    113888.23   -2093462.3    4986553.8 
    6200         1.55    1968.1697    45752.298   -2206650.4    113184.93   -2093465.5    4981620.1 
    6300        1.575    1955.6134     47103.49   -2205923.1    112462.85   -2093460.3    4976686.5 
    6400          1.6    1943.2023    49938.872   -2205197.1    111749.11     -2093448    4971752.9 
    6500        1.625    1931.0477    52120.788   -2204490.2    111050.13   -2093440.1    4966819.3 
    6600         1.65     1918.964     54426.78   -2203797.2    110355.22     -2093442    4961885.6 
    6700        1.675    1906.0234    56526.376   -2203059.6    109611.04   -2093448.6      4956952 
    6800          1.7    1894.0094    58302.072   -2202375.6    108920.14   -2093455.5    4952018.4 
    6900        1.725    1881.6623    60337.532   -2201667.6    108210.09   -2093457.5    4947084.8 
    7000         1.75    1869.0363    62145.285   -2200936.6       107484   -2093452.6    4942151.1 
    7100        1.775    1861.5373    64118.473     -2200492    107052.75   -2093439.3    4937217.5 
    7200          1.8    1863.6172    64511.654   -2200597.8    107172.36   -2093425.4    4932283.9 
    7300        1.825    1859.6745      65822.7   -2200368.7    106945.62     -2093423    4927350.3 
    7400         1.85    1854.2559    65888.314   -2200065.2    106634.01   -2093431.2    4922416.6 
    7500        1.875    1854.7176    66564.638   -2200100.7    106660.56   -2093440.1      4917483 
    7600          1.9    1850.0436    66607.948   -2199833.1    106391.77   -2093441.3    4912549.4 
    7700        1.925    1849.3473    67775.265   -2199789.3    106351.73   -2093437.6    4907615.8 
    7800         1.95    1847.1883    68352.201   -2199659.9    106227.57   -2093432.4    4902682.1 
    7900        1.975    1843.2362    69094.365   -2199432.9    106000.29   -2093432.6    4897748.5 
    8000            2    1841.9945    69457.377   -2199366.2    105928.88   -2093437.3    4892814.9 
    8100        2.025    1838.4503    70055.617     -2199163    105725.06     -2093438    4887881.2 
    8200         2.05    1840.6495    70584.542   -2199289.6    105851.53   -2093438.1    4882947.6 
    8300        2.075    1836.9763    71792.186   -2199077.4     105640.3   -2093437.1      4878014 
    8400          2.1    1837.3362    72261.826   -2199096.9    105660.99   -2093435.9    4873080.4 
    8500        2.125    1834.2779    73388.236   -2198920.2    105485.12   -2093435.1    4868146.7 
    8600         2.15    1828.0901    77085.921   -2198568.9    105129.27   -2093439.7    4863213.1 
    8700        2.175    1818.7289    81494.611   -2198043.8    104590.93   -2093452.8    4858279.5 
    8800          2.2    1809.8629    85796.091   -2197546.1    104081.07   -2093465.1    4853345.9 
    8900        2.225    1798.3424    89567.775   -2196888.5    103418.55   -2093469.9    4848412.2 
    9000         2.25    1785.7538    93208.797   -2196167.4    102694.61   -2093472.8    4843478.6 
    9100        2.275    1773.3888    97890.647   -2195459.9    101983.53   -2093476.4      4838545 
    9200          2.3    1757.8789    102904.98   -2194568.8    101091.59   -2093477.2    4833611.4 
    9300        2.325    1739.0573    107779.11   -2193487.5     100009.2   -2093478.3    4828677.7 
    9400         2.35    1718.5448     112392.1   -2192315.2    98829.574   -2093485.6    4823744.1 
    9500        2.375    1699.8995    117973.93   -2191252.5    97757.327   -2093495.1    4818810.5 
    9600          2.4    1679.7729     122523.3   -2190099.5    96599.892   -2093499.6    4813876.9 
    9700        2.425    1660.1278    128172.73   -2188967.8    95470.148   -2093497.6    4808943.2 
    9800         2.45    1637.3316    132877.58   -2187655.8    94159.187   -2093496.6    4804009.6 
    9900        2.475    1615.3817    137790.95   -2186400.6    92896.902   -2093503.7      4799076 
   10000          2.5    1592.2701    141401.67   -2185079.1    91567.804   -2093511.3    4794142.4 
   10100        2.525    1570.6674    144385.42     -2183835    90325.486   -2093509.5    4789208.7 
   10200         2.55     1549.943    146573.57   -2182635.8     89133.67   -2093502.2    4784275.1 
   10300        2.575    1527.9881     147287.1   -2181369.1    87871.096     -2093498    4779341.5 
   10400          2.6     1508.762    148758.71   -2180261.5    86765.445     -2093496    4774407.9 
   10500        2.625    1492.1667    148846.54     -2179300    85811.087   -2093488.9    4769474.2 
   10600         2.65    1481.2498    149176.48   -2178659.9    85183.283   -2093476.7    4764540.6 
   10700        2.675    1471.4022    148660.69   -2178090.5    84616.971   -2093473.6      4759607 
   10800          2.7    1464.6506    149659.19   -2177717.5      84228.7   -2093488.8    4754673.3 
   10900        2.725    1456.8758    149997.83   -2177287.2    83781.591   -2093505.6    4749739.7 
   11000         2.75    1450.8652    150168.22   -2176946.5    83435.935   -2093510.6    4744806.1 
   11100        2.775    1446.0807    150681.66   -2176669.7    83160.789   -2093508.9    4739872.5 
   11200          2.8    1444.7441    151191.48   -2176596.2    83083.923   -2093512.2    4734938.8 
   11300        2.825    1445.2043    153131.82   -2176630.1    83110.386   -2093519.7    4730005.2 
   11400         2.85    1446.5245     154890.2   -2176710.8    83186.313   -2093524.5    4725071.6 
   11500        2.875     1448.837    157146.61   -2176844.1    83319.298   -2093524.8      4720138 
   11600          2.9    1452.3633    159486.52   -2177041.1    83522.089     -2093519    4715204.3 
   11700        2.925    1454.6153    161865.92   -2177160.1    83651.595   -2093508.6    4710270.7 
   11800         2.95    1456.4379    164715.26   -2177256.1    83756.407   -2093499.7    4705337.1 
   11900        2.975    1455.1648    168240.39   -2177186.3    83683.194   -2093503.2    4700403.5 
   12000            3    1449.9039     170353.8   -2176900.3    83380.655   -2093519.6    4695469.8 
   12100        3.025    1443.8426    172031.34   -2176566.7    83032.081   -2093534.6    4690536.2 
   12200         3.05    1433.4966     174291.5   -2175975.4    82437.104   -2093538.3    4685602.6 
   12300        3.075    1422.6149    175913.46     -2175346    81811.324   -2093534.7      4680669 
   12400          3.1    1411.9887    177658.88   -2174728.8    81200.233   -2093528.5    4675735.3 
   12500        3.125    1398.2303    176949.16     -2173931    80409.023     -2093522    4670801.7 
   12600         3.15    1384.1289    177013.13   -2173117.1    79598.085     -2093519    4665868.1 
   12700        3.175     1366.806    178069.63   -2172120.6     78601.88   -2093518.8    4660934.5 
   12800          3.2    1346.3537    179197.71   -2170945.6    77425.715   -2093519.9    4656000.8 
   12900        3.225     1326.144    180151.01     -2169784    76263.504   -2093520.5    4651067.2 
   13000         3.25    1306.6418    180710.46     -2168653    75141.979     -2093511    4646133.6 
   13100        3.275    1285.4664    182140.21   -2167422.3     73924.23   -2093498.1      4641200 
   13200          3.3    1265.7759    182443.62   -2166288.7    72791.874   -2093496.9    4636266.3 
   13300        3.325    1246.1351    182878.73     -2165168    71662.373   -2093505.6    4631332.7 
   13400         3.35    1228.6717    184430.37   -2164167.7    70658.097   -2093509.6    4626399.1 
   13500        3.375    1215.0574    185798.49   -2163375.4    69875.167   -2093500.2    4621465.5 
   13600          3.4    1201.1731    188216.11   -2162566.3    69076.712   -2093489.6    4616531.8 
   13700        3.425    1191.3904     190013.3   -2162004.9    68514.131   -2093490.7    4611598.2 
   13800         3.45    1184.9394    191394.41   -2161642.7    68143.149   -2093499.5    4606664.6 
   13900        3.475     1180.621    193623.51   -2161397.3    67894.808   -2093502.5    4601730.9 
   14000          3.5    1176.0895    195504.83   -2161131.9     67634.21   -2093497.6    4596797.3 
   14100        3.525    1173.9063    197793.77   -2161003.8    67508.662   -2093495.1    4591863.7 
   14200         3.55    1173.4795    199630.71     -2160980    67484.119   -2093495.9    4586930.1 
   14300        3.575    1174.4398    202361.72   -2161032.5     67539.34   -2093493.1    4581996.4 
   14400          3.6    1174.4299    204014.65   -2161025.1    67538.771   -2093486.3    4577062.8 
   14500        3.625     1175.489    206925.82     -2161084    67599.677   -2093484.3    4572129.2 
   14600         3.65    1176.5196    209623.13   -2161151.1     67658.95   -2093492.2    4567195.6 
   14700        3.675    1176.5866    211622.75   -2161167.2    67662.799   -2093504.4    4562261.9 
   14800          3.7    1176.3903    214677.11   -2161166.2    67651.512   -2093514.7    4557328.3 
   14900        3.725     1174.219    217298.05     -2161048    67526.643   -2093521.4    4552394.7 
   15000         3.75     1170.385    221112.39   -2160830.6    67306.162   -2093524.5    4547461.1 
   15100        3.775    1163.7064    225329.82   -2160446.6    66922.092   -2093524.6    4542527.4 
   15200          3.8    1152.3544    230388.09   -2159793.7    66269.262   -2093524.5    4537593.8 
   15300        3.825    1141.4994       234800   -2159172.1    65645.017   -2093527.1    4532660.2 
   15400         3.85    1127.8451    239805.22   -2158390.9     64859.79   -2093531.1    4527726.6 
   15500        3.875    1111.0962    244887.71   -2157425.1    63896.598   -2093528.5    4522792.9 
   15600          3.9     1096.958    249223.64   -2156605.4     63083.54   -2093521.8    4517859.3 
   15700        3.925    1080.5509    254352.18   -2155658.3    62140.006   -2093518.3    4512925.7 
   15800         3.95    1064.8393    259711.21   -2154749.8    61236.469   -2093513.3    4507992.1 
   15900        3.975    1047.6443    263467.18   -2153753.7    60247.625   -2093506.1    4503058.4 
   16000            4    1031.5258    269082.67   -2152822.5    59320.685   -2093501.8    4498124.8 
   16100        4.025    1014.8485    272039.97   -2151867.5    58361.611   -2093505.9    4493191.2 
   16200         4.05    999.09396     275193.9   -2150967.6    57455.605     -2093512    4488257.6 
   16300        4.075    983.24266    278195.01   -2150053.3    56544.033   -2093509.3    4483323.9 
   16400          4.1    968.16031    280416.91     -2149179    55676.681   -2093502.4    4478390.3 
   16500        4.125    953.41665    281503.38   -2148330.8    54828.808     -2093502    4473456.7 
   16600         4.15    940.53149    282705.75   -2147592.7    54087.811   -2093504.9    4468523.1 
   16700        4.175    928.89411    283300.39   -2146920.6    53418.572     -2093502    4463589.4 
   16800          4.2    918.63368    283400.51   -2146323.8    52828.519   -2093495.3    4458655.8 
   16900        4.225    909.06257    284487.26   -2145771.5    52278.106   -2093493.4    4453722.2 
   17000         4.25    900.57648    284733.43     -2145289    51790.091   -2093498.9    4448788.5 
   17100        4.275    892.13425    285248.56   -2144808.3    51304.597   -2093503.8    4443854.9 
   17200          4.3    886.09844    285156.75   -2144460.1    50957.492   -2093502.6    4438921.3 
   17300        4.325    880.36859    286950.03   -2144129.8    50627.981   -2093501.8    4433987.7 
   17400         4.35     877.3207    286630.58   -2143957.8    50452.704   -2093505.1      4429054 
   17500        4.375    873.84523    288101.69     -2143763    50252.837   -2093510.2    4424120.4 
   17600          4.4    869.88024    288904.03   -2143535.7     50024.82   -2093510.8    4419186.8 
   17700        4.425    869.84264    290882.48   -2143527.8    50022.657   -2093505.1    4414253.2 
   17800         4.45    865.86803    292568.31   -2143292.6    49794.087   -2093498.6    4409319.5 
   17900        4.475    862.37651    294894.22   -2143093.7    49593.297   -2093500.4    4404385.9 
   18000          4.5     857.6307    296887.56   -2142835.2    49320.377   -2093514.8    4399452.3 
   18100        4.525    850.70301    299195.96   -2142449.7    48921.982   -2093527.7    4394518.7 
   18200         4.55    844.12333    301501.61   -2142066.8    48543.599   -2093523.2      4389585 
   18300        4.575    836.22232    302797.38   -2141600.5     48089.23   -2093511.3    4384651.4 
   18400          4.6    827.08123    305247.12   -2141073.3    47563.547   -2093509.7    4379717.8 
   18500        4.625    817.38331    306380.93   -2140524.1    47005.842   -2093518.2    4374784.2 
   18600         4.65    807.23916       308185   -2139946.6    46422.475   -2093524.1    4369850.5 
   18700        4.675    798.17887    311068.49   -2139423.4    45901.438   -2093521.9    4364916.9 
   18800          4.7    787.17097    311778.47   -2138790.8    45268.399   -2093522.4    4359983.3 
   18900        4.725    776.84381    314105.41   -2138207.4    44674.508   -2093532.9    4355049.7 
   19000         4.75    767.10756    316084.08   -2137656.8    44114.599   -2093542.2      4350116 
   19100        4.775    757.08915    317418.15   -2137080.6    43538.463   -2093542.2    4345182.4 
   19200          4.8    747.40064    319864.28   -2136519.8    42981.298   -2093538.5    4340248.8 
   19300        4.825    737.18111    321479.91   -2135927.4    42393.597   -2093533.8    4335315.2 
   19400         4.85    729.89049    323523.07   -2135491.8     41974.33   -2093517.4    4330381.5 
   19500        4.875    720.50938    325923.25   -2134902.3    41434.844   -2093467.5    4325447.9 
   19600          4.9    714.57235    328675.69   -2134465.6    41093.419   -2093372.2    4320514.3 
   19700        4.925    707.87528    330276.53   -2133936.5    40708.286   -2093228.2    4315580.7 
   19800         4.95    702.83085    332130.54   -2133431.2    40418.192     -2093013      4310647 
   19900        4.975    699.53848    334698.71   -2132904.2    40228.855   -2092675.3    4305713.4 
   20000            5    699.54213    336521.82   -2132399.6    40229.065   -2092170.5    4300779.8 
   20100        5.025    703.82507     338109.5     -2131969    40475.367   -2091493.6    4295846.1 
   20200         5.05    708.91319    340170.61   -2131458.6    40767.973   -2090690.6    4290912.5 
   20300        5.075     715.3597    340727.25   -2130974.6    41138.698   -2089835.9    4285978.9 
   20400          5.1    721.95196    342099.64     -2130512    41517.803   -2088994.2    4281045.3 
   20500        5.125    728.78686    344365.23   -2130095.5    41910.863   -2088184.7    4276111.6 
   20600         5.15    733.25612    344342.45   -2129544.5     42167.88   -2087376.6      4271178 
   20700        5.175    739.29604    345361.21   -2129042.2    42515.222     -2086527    4266244.4 
   20800          5.2    746.25412    346129.08     -2128539    42915.365   -2085623.6    4261310.8 
   20900        5.225     754.8873     346116.6   -2128088.7    43411.839   -2084676.9    4256377.1 
   21000         5.25    761.49269    347384.98   -2127493.6      43791.7   -2083701.9    4251443.5 
   21100        5.275    770.39548     348113.4   -2127019.6    44303.679   -2082715.9    4246509.9 
   21200          5.3    777.40388    348624.11   -2126429.9    44706.716   -2081723.1    4241576.3 
   21300        5.325    782.92816    349888.35   -2125739.3    45024.405   -2080714.9    4236642.6 
   21400         5.35    788.45994    351405.16   -2125023.4    45342.525   -2079680.8      4231709 
   21500        5.375    792.75656    353964.03   -2124205.8    45589.613   -2078616.2    4226775.4 
   21600          5.4    796.24043    355251.97   -2123318.5    45789.963   -2077528.5    4221841.8 
   21700        5.425    799.16516    358046.19   -2122375.7    45958.158   -2076417.6    4216908.1 
   21800         5.45    801.89424    361157.16   -2121395.9    46115.101   -2075280.8    4211974.5 
   21900        5.475    803.64751    364088.33   -2120355.1    46215.927   -2074139.1    4207040.9 
   22000          5.5    804.30192    366700.09   -2119255.5    46253.561   -2073001.9    4202107.3 
   22100        5.525    804.44115    370201.98   -2118104.1    46261.568   -2071842.5    4197173.6 
   22200         5.55    804.89286    374147.83   -2116912.2    46287.545   -2070624.6      4192240 
   22300        5.575     805.8905    377238.98     -2115693    46344.916   -2069348.1    4187306.4 
   22400          5.6    803.84383    382088.76   -2114258.9    46227.217   -2068031.7    4182372.8 
   22500        5.625    799.71798    386023.39   -2112669.8    45989.949   -2066679.8    4177439.1 
   22600         5.65    797.00969    391775.04   -2111127.7    45834.202   -2065293.5    4172505.5 
   22700        5.675    790.71798    397763.12   -2109347.8     45472.38   -2063875.5    4167571.9 
   22800          5.7    782.77023    403114.93   -2107428.1    45015.323   -2062412.8    4162638.3 
   22900        5.725    775.89115    408366.92   -2105503.1    44619.723   -2060883.4    4157704.6 
   23000         5.75    767.24704    412302.11   -2103410.6     44122.62     -2059288      4152771 
   23100        5.775    761.17691    416823.03   -2101412.9     43773.54   -2057639.3    4147837.4 
   23200          5.8    753.26454    422026.51   -2099244.3    43318.518   -2055925.8    4142903.7 
   23300        5.825    746.87879     426902.3   -2097084.4    42951.288   -2054133.1    4137970.1 
   23400         5.85    740.86599    430693.24   -2094886.1    42605.506   -2052280.6    4133036.5 
   23500        5.875    735.16663    435072.61   -2092676.7    42277.749     -2050399    4128102.9 
   23600          5.9    732.75261    439285.48   -2090621.6    42138.924   -2048482.7    4123169.2 
   23700        5.925    727.11573    442293.35   -2088326.8     41814.76     -2046512    4118235.6 
   23800         5.95    725.09933    447028.88   -2086202.5    41698.802   -2044503.7      4113302 
   23900        5.975    720.97543    451887.63   -2083959.6    41461.645     -2042498    4108368.4 
   24000            6    717.46704    454724.63   -2081722.9    41259.886     -2040463    4103434.7 
   24100        6.025    715.34042    460224.32   -2079403.1    41137.589   -2038265.5    4098501.1 
   24200         6.05    720.17046    464958.44   -2077109.7    41415.353   -2035694.4    4093567.5 
   24300        6.075    732.29786    469828.19   -2074726.4    42112.772   -2032613.6    4088633.9 
   24400          6.1    751.34476    475278.36     -2072336    43208.116   -2029127.9    4083700.2 
   24500        6.125    774.22832    480012.86   -2070050.8    44524.097   -2025526.7    4078766.6 
   24600         6.15    792.90615    484867.35   -2067570.6    45598.216   -2021972.3      4073833 
   24700        6.175    813.44393    490504.13   -2065160.4    46779.297   -2018381.1    4068899.4 
   24800          6.2    837.13681    496414.35   -2062731.4     48141.82   -2014589.6    4063965.7 
   24900        6.225        865.5    501379.53   -2060300.9    49772.922     -2010528    4059032.1 
   25000         6.25    898.66934       506976   -2057928.6    51680.415   -2006248.2    4054098.5 
   25100        6.275    936.18605    510823.54   -2055654.2    53837.915   -2001816.3    4049164.9 
   25200          6.3    977.13383    516966.64     -2053497    56192.728   -1997304.2    4044231.2 
   25300        6.325    1018.4138     521426.1   -2051412.3    58566.645   -1992845.6    4039297.6 
   25400         6.35    1058.1404    525217.04   -2049385.9    60851.229   -1988534.7      4034364 
   25500        6.375    1096.1862    529651.75   -2047379.9    63039.159   -1984340.7    4029430.4 
   25600          6.4    1137.4266    533799.11   -2045562.7    65410.797   -1980151.9    4024496.7 
   25700        6.425    1175.4512    537613.94   -2043582.6    67597.508   -1975985.1    4019563.1 
   25800         6.45    1211.5271    541943.95   -2041637.5    69672.146   -1971965.4    4014629.5 
   25900        6.475    1246.2264    546512.56   -2039796.7    71667.625   -1968129.1    4009695.8 
   26000          6.5    1279.4709    550746.46   -2037921.7    73579.439   -1964342.2    4004762.2 
   26100        6.525    1315.1326    554815.56   -2036161.8    75630.266   -1960531.6    3999828.6 
   26200         6.55    1349.0503    558220.95   -2034333.7    77580.794   -1956752.9      3994895 
   26300        6.575    1380.1715     563920.9     -2032516      79370.5   -1953145.5    3989961.3 
   26400          6.6      1408.04    567622.42   -2030730.5    80973.155   -1949757.4    3985027.7 
   26500        6.625    1430.6511    573284.49   -2028816.4    82273.465     -1946543    3980094.1 
   26600         6.65    1453.8619    578205.36   -2027038.5    83608.266   -1943430.2    3975160.5 
   26700        6.675    1474.6064    584444.95   -2025202.1    84801.236   -1940400.8    3970226.8 
   26800          6.7    1494.5032    589458.86   -2023352.4    85945.458     -1937407    3965293.2 
   26900        6.725    1515.1075    594882.45   -2021534.5    87130.361   -1934404.2    3960359.6 
   27000         6.75    1536.8421    599379.91   -2019777.7    88380.271   -1931397.5      3955426 
   27100        6.775    1555.7776    604808.32   -2017896.8    89469.206   -1928427.6    3950492.3 
   27200          6.8    1574.9759    609052.48   -2016114.8    90573.254   -1925541.6    3945558.7 
   27300        6.825    1591.8009     614204.3     -2014285    91540.825   -1922744.2    3940625.1 
   27400         6.85    1609.4232    619826.07   -2012561.2    92554.239     -1920007    3935691.5 
   27500        6.875    1626.3497    624509.19   -2010805.6    93527.645   -1917277.9    3930757.8 
   27600          6.9    1644.5475    628912.82   -2009084.2    94574.159     -1914510    3925824.2 
   27700        6.925    1667.5284     635069.7   -2007537.9    95895.736   -1911642.1    3920890.6 
   27800         6.95    1690.9488    640215.44   -2005933.5    97242.594   -1908690.9      3915957 
   27900        6.975    1714.1704    647375.76   -2004301.8     98578.01   -1905723.8    3911023.3 
   28000            7    1738.1111    654691.32   -2002722.5     99954.79   -1902767.7    3906089.7 
   28100        7.025    1763.7739    663727.63     -2001234    101430.59   -1899803.4    3901156.1 
   28200         7.05    1787.9303    670595.92   -1999609.1    102819.78   -1896789.3    3896222.5 
   28300        7.075    1813.3058    678756.45   -1998036.2    104279.06   -1893757.2    3891288.8 
   28400          7.1    1835.5542     686079.3   -1996298.7    105558.51   -1890740.2    3886355.2 
   28500        7.125    1854.3448    694655.43   -1994364.7    106639.12   -1887725.6    3881421.6 
   28600         7.15    1871.9794    704481.76     -1992319    107653.25   -1884665.8      3876488 
   28700        7.175    1888.0774    714377.19   -1990154.4    108579.01   -1881575.4    3871554.3 
   28800          7.2    1900.1188     724266.8   -1987764.4    109271.48   -1878492.9    3866620.7 
   28900        7.225    1914.1603    733976.14     -1985523    110078.97     -1875444    3861687.1 
   29000         7.25    1923.4596    744230.39   -1983001.7    110613.75     -1872388    3856753.4 
   29100        7.275     1932.915    754962.55   -1980456.5    111157.52     -1869299    3851819.8 
   29200          7.3    1940.5845    763022.68   -1977762.1    111598.57   -1866163.6    3846886.2 
   29300        7.325    1950.0351    771955.06   -1975168.7    112142.05   -1863026.6    3841952.6 
   29400         7.35    1957.6826    779673.97   -1972486.8    112581.84     -1859905    3837018.9 
   29500        7.375    1967.5246    788393.95   -1969943.5    113147.83   -1856795.7    3832085.3 
   29600          7.4    1978.3179    792980.58     -1967446    113768.53   -1853677.4    3827151.7 
   29700        7.425    1992.9841    798537.31   -1965145.2    114611.95   -1850533.3    3822218.1 
   29800         7.45    2006.9049    805607.96   -1962804.5    115412.51     -1847392    3817284.4 
   29900        7.475    2022.3899    812959.81   -1960599.4    116303.01   -1844296.4    3812350.8 
   30000          7.5    2037.8354    815783.43   -1958437.4    117191.24   -1841246.2    3807417.2 
   30100        7.525    2052.9176    820125.65   -1956278.2    118058.59   -1838219.6    3802483.6 
   30200         7.55     2073.066    825547.69   -1954391.4    119217.28   -1835174.1    3797549.9 
   30300        7.575    2093.1161    829379.62   -1952457.8    120370.31   -1832087.5    3792616.3 
   30400          7.6    2114.0893     835258.6   -1950546.4    121576.43     -1828970    3787682.7 
   30500        7.625    2139.1517    838052.77   -1948862.8    123017.72   -1825845.1    3782749.1 
   30600         7.65    2162.4256    845063.15   -1947062.5    124356.14   -1822706.4    3777815.4 
   30700        7.675    2187.7276    848833.28   -1945359.4     125811.2   -1819548.2    3772881.8 
   30800          7.7    2214.3289    853371.35   -1943759.3    127340.98   -1816418.3    3767948.2 
   30900        7.725    2239.3474    860354.14   -1942173.5    128779.74   -1813393.8    3763014.6 
   31000         7.75     2262.162    863706.41   -1940588.1    130091.76   -1810496.3    3758080.9 
   31100        7.775    2288.8589    869075.49   -1939315.5    131627.03   -1807688.5    3753147.3 
   31200          7.8    2308.9745    874016.67   -1937728.4    132783.84   -1804944.5    3748213.7 
   31300        7.825    2334.0572    877257.22   -1936486.7    134226.28   -1802260.4    3743280.1 
   31400         7.85    2359.3799    883312.02   -1935307.9    135682.54   -1799625.4    3738346.4 
   31500        7.875    2385.9458    887322.25   -1934227.6    137210.27   -1797017.3    3733412.8 
   31600          7.9    2411.9409     891656.4   -1933119.6     138705.2   -1794414.4    3728479.2 
   31700        7.925    2440.4349    897013.33   -1932156.8    140343.82     -1791813    3723545.6 
   31800         7.95    2468.4238    900516.87     -1931177     141953.4   -1789223.6    3718611.9 
   31900        7.975    2499.4664    904798.67   -1930397.5    143738.59   -1786658.9    3713678.3 
   32000            8    2527.7345     908168.4   -1929516.1    145364.22   -1784151.9    3708744.7 
   32100        8.025     2552.218    911179.14   -1928512.1    146772.21   -1781739.8      3703811 
   32200         8.05    2577.1254    912389.87   -1927620.2    148204.58   -1779415.6    3698877.4 
   32300        8.075    2598.2991    917268.43   -1926565.2    149422.23     -1777143    3693943.8 
   32400          8.1    2617.4351    919493.55   -1925432.1     150522.7   -1774909.4    3689010.2 
   32500        8.125    2630.7213    924256.97   -1924000.1    151286.75   -1772713.3    3684076.5 
   32600         8.15    2640.1481    926846.09   -1922356.2    151828.87   -1770527.3    3679142.9 
   32700        8.175    2639.6977    934531.31     -1920103    151802.97     -1768300    3674209.3 
   32800          8.2     2633.847    939906.15   -1917451.8    151466.51   -1765985.3    3669275.7 
   32900        8.225    2619.2367    948159.64   -1914178.5     150626.3   -1763552.2      3664342 
   33000         8.25    2605.6661    953652.74   -1910804.1    149845.89   -1760958.2    3659408.4 
   33100        8.275    2589.4396    964409.06     -1907098    148912.74   -1758185.3    3654474.8 
   33200          8.3    2571.5713     972407.1   -1903164.2    147885.17     -1755279    3649541.2 
   33300        8.325    2554.3901    981004.39   -1899231.6    146897.13   -1752334.5    3644607.5 
   33400         8.35    2531.9583    988166.68   -1894992.1    145607.12     -1749385    3639673.9 
   33500        8.375    2514.9848    999076.64   -1891007.7    144631.01   -1746376.6    3634740.3 
   33600          8.4    2503.3648    1003304.1   -1887195.3    143962.78   -1743232.5    3629806.7 
   33700        8.425    2498.2605    1009951.9   -1883529.2    143669.24   -1739859.9      3624873 
   33800         8.45    2507.0514    1017986.2   -1880355.3    144174.78   -1736180.5    3619939.4 
   33900        8.475    2520.9229    1021995.1   -1877220.3     144972.5   -1732247.8    3615005.8 
   34000          8.5    2534.9739      1027864   -1874049.3    145780.54   -1728268.7    3610072.2 
   34100        8.525    2548.4157    1030867.1   -1870922.6    146553.55     -1724369    3605138.5 
   34200         8.55    2562.4375    1034460.6   -1867805.8    147359.91   -1720445.8    3600204.9 
   34300        8.575    2573.9072    1045001.3   -1864372.2    148019.51   -1716352.7    3595271.3 
   34400          8.6    2581.0212    1053993.8   -1860581.3    148428.62   -1712152.7    3590337.7 
   34500        8.625    2585.4725    1065271.3   -1856699.6     148684.6     -1708015      3585404 
   34600         8.65    2582.1651    1074867.7   -1852469.8     148494.4   -1703975.4    3580470.4 
   34700        8.675    2575.0015    1083418.3   -1848027.9    148082.44   -1699945.5    3575536.8 
   34800          8.7    2567.9097    1092327.4     -1843586     147674.6   -1695911.4    3570603.2 
   34900        8.725    2557.1063    1103869.3   -1839016.1    147053.32   -1691962.8    3565669.5 
   35000         8.75    2542.9201    1116546.6   -1834389.2    146237.51   -1688151.7    3560735.9 
   35100        8.775    2523.8926    1128607.9   -1829588.2    145143.28   -1684444.9    3555802.3 
   35200          8.8    2506.2245    1139255.9   -1824950.2    144127.23     -1680823    3550868.6 
   35300        8.825    2490.5923    1147925.8     -1820550    143228.26   -1677321.7      3545935 
   35400         8.85    2477.1033    1155170.9   -1816400.7    142452.53   -1673948.2    3541001.4 
   35500        8.875    2471.8371    1165173.2   -1812794.6    142149.69   -1670644.9    3536067.8 
   35600          8.9    2469.8897    1174411.9   -1809440.3     142037.7   -1667402.6    3531134.1 
   35700        8.925    2467.3432    1178758.8   -1806179.5    141891.25   -1664288.2    3526200.5 
   35800         8.95    2467.4008    1187386.5   -1803224.6    141894.57     -1661330    3521266.9 
   35900        8.975    2471.0957    1193006.5   -1800601.8    142107.05   -1658494.8    3516333.3 
   36000            9    2467.3791    1194513.2     -1797648    141893.32   -1655754.7    3511399.6 
   36100        9.025    2459.5312    1203424.6   -1794564.6    141442.01   -1653122.6      3506466 
   36200         9.05    2449.0184    1205581.3   -1791429.1    140837.44   -1650591.6    3501532.4 
   36300        9.075    2429.6463    1210983.2   -1787839.6    139723.39   -1648116.2    3496598.8 
   36400          9.1    2408.0446    1216771.8   -1784135.4    138481.13   -1645654.3    3491665.1 
   36500        9.125    2384.9111    1219694.1   -1780345.4    137150.77   -1643194.6    3486731.5 
   36600         9.15    2358.2982      1227403   -1776352.8    135620.33   -1640732.5    3481797.9 
   36700        9.175    2330.1413    1231048.6   -1772253.7    134001.09   -1638252.6    3476864.3 
   36800          9.2    2300.9703    1235196.5   -1768074.9    132323.53   -1635751.4    3471930.6 
   36900        9.225    2275.0769    1244230.9   -1764090.8    130834.46   -1633256.3      3466997 
   37000         9.25    2248.9674    1251148.2   -1760103.4    129332.97   -1630770.4    3462063.4 
   37100        9.275    2226.3574    1257401.9   -1756283.2    128032.71   -1628250.5    3457129.8 
   37200          9.3    2209.3986    1265245.3   -1752726.4    127057.45     -1625669    3452196.1 
   37300        9.325    2195.9629    1268876.7   -1749308.5     126284.8   -1623023.7    3447262.5 
   37400         9.35    2183.4428    1277046.1   -1745882.6    125564.79   -1620317.8    3442328.9 
   37500        9.375     2174.855    1286096.6   -1742600.5    125070.93   -1617529.6    3437395.3 
   37600          9.4    2163.5431    1297373.7   -1739080.6     124420.4   -1614660.2    3432461.6 
   37700        9.425     2152.843      1309276   -1735551.5    123805.07   -1611746.4      3427528 
   37800         9.45    2138.8326    1323681.7   -1731833.9    122999.36   -1608834.6    3422594.4 
   37900        9.475    2124.3024      1334892   -1728096.1    122163.76   -1605932.4    3417660.8 
   38000          9.5     2105.777      1351272   -1724111.7    121098.41   -1603013.3    3412727.1 
   38100        9.525    2082.0197    1361690.6   -1719811.2    119732.18     -1600079    3407793.5 
   38200         9.55     2059.411    1377481.5   -1715562.1    118432.01   -1597130.1    3402859.9 
   38300        9.575    2036.0195    1387052.1   -1711246.9    117086.82   -1594160.1    3397926.2 
   38400          9.6    2010.1537    1403283.1   -1706784.5    115599.33   -1591185.2    3392992.6 
   38500        9.625     1987.429    1415932.6   -1702533.5    114292.49     -1588241      3388059 
   38600         9.65    1966.5592    1420013.1   -1698442.1    113092.31   -1585349.8    3383125.4 
   38700        9.675    1943.7344    1426268.8   -1694279.8    111779.71     -1582500    3378191.7 
   38800          9.7     1922.005    1432647.7   -1690212.2     110530.1   -1579682.1    3373258.1 
   38900        9.725    1897.7604    1438428.7   -1686052.5    109135.85   -1576916.6    3368324.5 
   39000         9.75     1878.473    1440644.5   -1682258.3    108026.68   -1574231.6    3363390.9 
   39100        9.775    1854.2236    1443726.8   -1678250.7    106632.15   -1571618.5    3358457.2 
   39200          9.8    1825.5691    1448776.5   -1674043.4    104984.29   -1569059.1    3353523.6 
   39300        9.825    1795.9485    1450745.1   -1669833.9    103280.88   -1566553.1      3348590 
   39400         9.85    1773.4156    1454456.2   -1666105.3    101985.07   -1564120.2    3343656.4 
   39500        9.875    1743.6337      1461420   -1662020.6    100272.38   -1561748.2    3338722.7 
   39600          9.9    1715.0882    1465888.4   -1658043.2    98630.794   -1559412.4    3333789.1 
   39700        9.925    1688.2044    1472569.4   -1654199.7    97084.766   -1557114.9    3328855.5 
   39800         9.95    1661.8702    1476947.8   -1650428.5    95570.348   -1554858.2    3323921.9 
   39900        9.975    1641.2349    1484296.8   -1646997.3    94383.658   -1552613.7    3318988.2 
   40000           10     1619.955    1489533.5   -1643512.8    93159.898   -1550352.9    3314054.6 
   40100       10.025    1601.8416    1498210.8   -1640152.3    92118.242   -1548034.1      3309121 
   40200        10.05     1589.113    1504960.8   -1636926.4    91386.246   -1545540.2    3304187.4 
   40300       10.075    1579.9999    1514815.7   -1633497.9    90862.177   -1542635.7    3299253.7 
   40400         10.1    1585.4171    1522719.4   -1630232.6    91173.706   -1539058.9    3294320.1 
   40500       10.125    1593.8784    1528671.6   -1626466.8    91660.296   -1534806.5    3289386.5 
   40600        10.15    1611.6643    1540503.7   -1622953.6     92683.12   -1530270.5    3284452.9 
   40700       10.175    1618.1907    1550211.7     -1618965    93058.441   -1525906.6    3279519.2 
   40800         10.2    1629.9622    1557836.1   -1615510.4     93735.39     -1521775    3274585.6 
   40900       10.225    1636.1465    1566538.4   -1611679.8    94091.035   -1517588.8      3269652 
   41000        10.25    1647.8232    1572049.5   -1607866.5    94762.536     -1513104    3264718.4 
   41100       10.275    1662.7184    1582798.9   -1603958.3    95619.127   -1508339.2    3259784.7 
   41200         10.3    1678.5211      1592350   -1600038.2    96527.903   -1503510.3    3254851.1 
   41300       10.325    1690.9782    1598783.6   -1595983.2     97244.28   -1498738.9    3249917.5 
   41400        10.35    1702.5606    1602624.9   -1591869.2    97910.361   -1493958.8    3244983.8 
   41500       10.375    1712.4176      1608666   -1587521.7    98477.214   -1489044.5    3240050.2 
   41600         10.4    1724.8249    1614325.8   -1583155.5    99190.727   -1483964.8    3235116.6 
   41700       10.425    1736.6914    1619490.6   -1578641.4    99873.143   -1478768.3      3230183 
   41800        10.45    1746.6865    1621061.8   -1573938.7    100447.94   -1473490.8    3225249.3 
   41900       10.475    1751.3938    1628131.4   -1568827.2    100718.65   -1468108.5    3220315.7 
   42000         10.5    1757.2977    1637005.7   -1563621.6    101058.16   -1462563.5    3215382.1 
   42100       10.525    1759.8564      1646824   -1558079.5    101205.31   -1456874.2    3210448.5 
   42200        10.55    1762.0989    1656019.1   -1552493.5    101334.27   -1451159.2    3205514.8 
   42300       10.575    1754.9135    1664963.5   -1546450.8    100921.05   -1445529.8    3200581.2 
   42400         10.6    1741.7278    1676459.1   -1540109.4    100162.78   -1439946.6    3195647.6 
   42500       10.625    1733.6701    1690028.9   -1533941.7    99699.393   -1434242.3      3190714 
   42600        10.65    1727.9579    1698480.8   -1527692.7    99370.898   -1428321.8    3185780.3 
   42700       10.675    1729.6816    1713161.5     -1521660    99470.027     -1422190    3180846.7 
   42800         10.7    1732.1561      1721820   -1515478.3    99612.331     -1415866    3175913.1 
   42900       10.725     1743.578    1734528.5   -1509602.2    100269.17   -1409333.1    3170979.5 
   43000        10.75     1758.999    1744674.4   -1503743.5       101156   -1402587.5    3166045.8 
   43100       10.775    1775.3216    1756887.3   -1497678.4    102094.68   -1395583.8    3161112.2 
   43200         10.8    1799.5038    1771176.6   -1491641.3    103485.34     -1388156    3156178.6 
   43300       10.825    1832.3215    1785276.3   -1485540.5    105372.61   -1380167.8      3151245 
   43400        10.85    1870.3795    1792799.2   -1479338.4    107561.24   -1371777.1    3146311.3 
   43500       10.875    1909.2683    1803748.9   -1473050.1    109797.64   -1363252.5    3141377.7 
   43600         10.9    1942.3202    1817344.5   -1466446.1    111698.39   -1354747.7    3136444.1 
   43700       10.925    1979.9342    1833349.3   -1460060.7    113861.48   -1346199.2    3131510.5 
   43800        10.95    2013.8005    1842574.6   -1453395.3    115809.05   -1337586.3    3126576.8 
   43900       10.975    2058.7469    1855693.2   -1447341.3    118393.82   -1328947.5    3121643.2 
   44000           11    2102.6479    1871721.5   -1441271.3    120918.46   -1320352.9    3116709.6 
   44100       11.025    2147.5494    1881721.5   -1435324.9    123500.65   -1311824.3    3111775.9 
   44200        11.05    2194.5027    1896634.8   -1429631.6    126200.82   -1303430.7    3106842.3 
   44300       11.075    2240.1913    1909303.8     -1424028    128828.27   -1295199.8    3101908.7 
   44400         11.1    2284.1841    1927278.2   -1418481.3    131358.19   -1287123.1    3096975.1 
   44500       11.125    2322.4842    1944408.3     -1412729    133560.75   -1279168.2    3092041.4 
   44600        11.15    2359.1906    1963294.8   -1407098.7    135671.65     -1271427    3087107.8 
   44700       11.175    2383.7221    1980659.2   -1401013.1     137082.4   -1263930.7    3082174.2 
   44800         11.2    2405.6251    2000647.8   -1394931.9    138341.99   -1256589.9    3077240.6 
   44900       11.225    2420.9426    2023018.3   -1388579.8    139222.86     -1249357    3072306.9 
   45000        11.25    2440.0318    2038889.2   -1382609.7    140320.64   -1242289.1    3067373.3 
   45100       11.275    2454.4473      2061897   -1376459.2    141149.64   -1235309.5    3062439.7 
   45200         11.3      2463.11    2083762.3   -1369848.2    141647.82   -1228200.4    3057506.1 
   45300       11.325    2481.4017      2107195   -1363619.7    142699.73   -1220919.9    3052572.4 
   45400        11.35    2500.0258    2120508.6   -1357230.9    143770.76   -1213460.2    3047638.8 
   45500       11.375    2513.8482    2142292.8   -1350345.7    144565.65     -1205780    3042705.2 
   45600         11.4     2536.624    2157236.5   -1343656.2    145875.43   -1197780.7    3037771.6 
   45700       11.425    2557.0395    2174387.5   -1336591.5    147049.48     -1189542    3032837.9 
   45800        11.45    2578.3876    2186922.4   -1329356.9    148277.17   -1181079.7    3027904.3 
   45900       11.475    2605.3534    2202276.4     -1322209    149827.91   -1172381.1    3022970.7 
   46000         11.5    2635.7448    2218513.3   -1315017.5    151575.64   -1163441.9    3018037.1 
   46100       11.525    2674.9194    2232229.5   -1308176.6    153828.49   -1154348.1    3013103.4 
   46200        11.55    2712.1942    2244907.9   -1301206.8    155972.07   -1145234.8    3008169.8 
   46300       11.575    2759.8093    2265978.2   -1294834.4    158710.31   -1136124.1    3003236.2 
   46400         11.6    2803.5077    2277515.6   -1288269.8     161223.3   -1127046.5    2998302.6 
   46500       11.625    2857.5407    2294328.4     -1282425    164330.62   -1118094.3    2993368.9 
   46600        11.65     2912.761    2313537.3   -1276837.3    167506.21   -1109331.1    2988435.3 
   46700       11.675    2965.4789    2328617.2   -1271342.6     170537.9   -1100804.7    2983501.7 
   46800         11.7    3004.5065    2346123.6   -1265313.2    172782.29   -1092530.9    2978568.1 
   46900       11.725    3048.9051    2363239.5   -1259942.2    175335.55   -1084606.7    2973634.4 
   47000        11.75    3082.4325      2381630   -1254298.7    177263.63   -1077035.1    2968700.8 
   47100       11.775    3105.1171    2393041.3   -1248269.6    178568.17   -1069701.4    2963767.2 
   47200         11.8     3124.197    2406201.8     -1242273    179665.41   -1062607.6    2958833.5 
   47300       11.825     3133.503      2421964   -1235941.8    180200.58   -1055741.2    2953899.9 
   47400        11.85     3141.448    2435831.2   -1229694.6    180657.48   -1049037.1    2948966.3 
   47500       11.875    3148.9885    2449205.4   -1223488.3    181091.12   -1042397.2    2944032.7 
   47600         11.9    3158.7879    2463116.7   -1217443.5    181654.66   -1035788.9      2939099 
   47700       11.925    3165.5948    2476412.5   -1211152.8     182046.1   -1029106.7    2934165.4 
   47800        11.95    3173.1227      2492836   -1204685.1    182479.02   -1022206.1    2929231.8 
   47900       11.975    3179.1058    2509537.2   -1197787.6    182823.09   -1014964.5    2924298.2 
   48000           12    3196.5614    2513298.6   -1191209.8    183826.92   -1007382.9    2919364.5 
   48100       12.025    3208.4093    2528503.7     -1183934    184508.27   -999425.72    2914430.9 
   48200        12.05    3216.4918      2545719   -1176029.8    184973.07   -991056.71    2909497.3 
   48300       12.075    3241.5257    2563811.2   -1168717.8    186412.72   -982305.13    2904563.7 
   48400         12.1    3258.7385    2581846.1   -1160668.7    187402.59   -973266.15      2899630 
   48500       12.125    3270.5526    2604930.2   -1152076.9    188081.99   -963994.89    2894696.4 
   48600        12.15     3288.973    2625920.8   -1143617.9     189141.3   -954476.64    2889762.8 
   48700       12.175    3316.7829    2641602.9   -1135523.7    190740.59   -944783.12    2884829.2 
   48800         12.2    3334.9416    2668560.2   -1126784.9    191784.85   -935000.08    2879895.5 
   48900       12.225    3354.0585    2687336.3   -1118083.3    192884.22   -925199.11    2874961.9 
   49000        12.25    3372.9117    2715627.9   -1109330.3    193968.42   -915361.84    2870028.3 
   49100       12.275    3397.0433    2735568.6   -1100911.4    195356.18   -905555.18    2865094.7 
   49200         12.3    3417.5785    2759267.2   -1092373.2    196537.11    -895836.1      2860161 
   49300       12.325    3438.2284    2783132.9   -1083945.4    197724.64    -886220.8    2855227.4 
   49400        12.35    3455.7239    2797045.6   -1075482.6    198730.77   -876751.87    2850293.8 
   49500       12.375    3469.7494    2816736.5   -1066946.3    199537.34   -867408.96    2845360.2 
   49600         12.4     3486.075    2841412.6   -1058748.7    200476.19   -858272.55    2840426.5 
   49700       12.425    3498.5178    2854776.4   -1050491.3    201191.75   -849299.52    2835492.9 
   49800        12.45    3507.0287      2876778   -1042234.5    201681.19   -840553.32    2830559.3 
   49900       12.475    3526.8163    2895473.5   -1034823.2    202819.13   -832004.03    2825625.7 
   50000         12.5    3529.4858    2911958.8   -1026619.6    202972.64   -823646.96      2820692 
Loop time of 4119.92 on 96 procs for 50000 steps with 444900 atoms

Performance: 0.262 ns/day, 91.554 hours/ns, 12.136 timesteps/s
100.0% CPU use with 96 MPI tasks x 1 OpenMP threads

MPI task timing breakdown:
Section |  min time  |  avg time  |  max time  |%varavg| %total
---------------------------------------------------------------
Pair    | 1089.1     | 1863.9     | 4007.5     |2210.9 | 45.24
Neigh   | 13.323     | 16.919     | 22.008     |  56.6 |  0.41
Comm    | 39.437     | 782.5      | 2121.7     |2657.8 | 18.99
Output  | 9.2901     | 9.2912     | 9.3122     |   0.1 |  0.23
Modify  | 30.35      | 1442.9     | 2760       |3102.2 | 35.02
Other   |            | 4.364      |            |       |  0.11

Nlocal:        4634.38 ave        5144 max        4176 min
Histogram: 7 19 17 5 0 0 23 13 0 12
Nghost:        13199.4 ave       14621 max       12199 min
Histogram: 23 20 5 0 0 19 5 12 0 12
Neighs:         0.00000 ave           0 max           0 min
Histogram: 96 0 0 0 0 0 0 0 0 0
FullNghs:  1.44870e+06 ave 1.91562e+06 max 1.05844e+06 min
Histogram: 18 6 1 10 8 35 6 0 0 12

Total # of neighbors = 1.3907515e+08
Ave neighs/atom = 312.59867
Neighbor list builds = 515
Dangerous builds = 0
Total wall time: 1:08:44
