LAMMPS (24 Mar 2022)
OMP_NUM_THREADS environment is not set. Defaulting to 1 thread. (src/comm.cpp:98)
  using 1 OpenMP thread(s) per MPI task
package gpu 0
# Impact of NiAl nanolaminate, 4 km/s.

# simulation construction

units      metal
dimension  3
boundary   p p p
atom_style atomic

region       left    block         -1000.0    -45.0 0.0 200 0.0 200
region      right    block             45.0 1000.0 0.0 200 0.0 200

thermo 1

# Read pre-thermalised data, reset timestep
read_restart bilayer-nial09-thermalised.init
Reading restart file ...
  restart file = 24 Mar 2022, LAMMPS = 24 Mar 2022
  restoring atom style atomic from restart
  orthogonal box = (0 0.041596894 0.29145035) to (514 99.958403 99.70855)
  6 by 1 by 1 MPI processor grid
  pair style eam/alloy/gpu stores no restart info
  397994 atoms
  read_restart CPU = 0.060 seconds
timestep   0.001
reset_timestep 0

# Set potentials
pair_style eam/alloy
pair_coeff * * Mishin-Ni-Al-2009.eam.alloy Ni Al


# Thermodynamic acquire settings
thermo_style custom step time temp press pe ke etotal vol
thermo 100
dump    atomdump all atom 100 contract.lammpstrj

compute spatialbins all chunk/atom bin/1d x lower 0.01 ids every compress no units reduced
compute bintemps    all temp/chunk spatialbins temp com yes
compute ke all ke

fix     temp_bias          all ave/chunk 1 10 10 spatialbins temp bias bintemps file temp.bias.dat
fix     velocity_x         all ave/chunk 1 10 10 spatialbins vx file vx.dat
fix     velocity_x_highres all ave/chunk 1  1  1 spatialbins vx file hrvx.dat
fix     kinetic_energy     all ave/time 1 1 1 c_ke file ke.dat

# Set microcanonical ensemble
fix     microcanonical     all nve

# Thump dynamics
group          g_left      region left
0 atoms in group g_left
group         g_right      region right
360916 atoms in group g_right
velocity       g_left      set  20 NULL NULL units box sum yes
velocity      g_right      set -20 NULL NULL units box sum yes
fix      box_contract      all deform 1 x vel -40 remap v units box
run 10000

CITE-CITE-CITE-CITE-CITE-CITE-CITE-CITE-CITE-CITE-CITE-CITE-CITE

Your simulation uses code contributions which should be cited:

- GPU package (short-range, long-range and three-body potentials):

@Article{Brown11,
 author = {W. M. Brown, P. Wang, S. J. Plimpton, A. N. Tharrington},
 title = {Implementing Molecular Dynamics on Hybrid High Performance Computers - Short Range Forces},
 journal = {Comp.~Phys.~Comm.},
 year =    2011,
 volume =  182,
 pages =   {898--911}
}

@Article{Brown12,
 author = {W. M. Brown, A. Kohlmeyer, S. J. Plimpton, A. N. Tharrington},
 title = {Implementing Molecular Dynamics on Hybrid High Performance Computers - Particle-Particle Particle-Mesh},
 journal = {Comp.~Phys.~Comm.},
 year =    2012,
 volume =  183,
 pages =   {449--459}
}

@Article{Brown13,
 author = {W. M. Brown, Y. Masako},
 title = {Implementing Molecular Dynamics on Hybrid High Performance Computers – Three-Body Potentials},
 journal = {Comp.~Phys.~Comm.},
 year =    2013,
 volume =  184,
 pages =   {2785--2793}
}

@Article{Trung15,
 author = {T. D. Nguyen, S. J. Plimpton},
 title = {Accelerating dissipative particle dynamics simulations for soft matter systems},
 journal = {Comput.~Mater.~Sci.},
 year =    2015,
 volume =  100,
 pages =   {173--180}
}

@Article{Trung17,
 author = {T. D. Nguyen},
 title = {GPU-accelerated Tersoff potentials for massively parallel Molecular Dynamics simulations},
 journal = {Comp.~Phys.~Comm.},
 year =    2017,
 volume =  212,
 pages =   {113--122}
}

@Article{Nikolskiy19,
 author = {V. Nikolskiy, V. Stegailov},
 title = {GPU acceleration of four-site water models in LAMMPS},
 journal = {Proceeding of the International Conference on Parallel Computing (ParCo 2019), Prague, Czech Republic},
 year =    2019
}

CITE-CITE-CITE-CITE-CITE-CITE-CITE-CITE-CITE-CITE-CITE-CITE-CITE

Unused restart file global fix info:
  fix style: npt/gpu, fix ID: 1
Unused restart file peratom fix info:
  fix style: STORE, fix ID: spatialbins_COMPUTE_STORE
Per MPI rank memory allocation (min/avg/max) = 25.09 | 27.16 | 28.32 Mbytes
   Step          Time           Temp          Press          PotEng         KinEng         TotEng         Volume    
         0   0              7663.5682      78842.198     -1652548.6      394249.45     -1258299.1      5105787.7    
       100   0.1            7696.9805      92882.991     -1647851.6      395968.34     -1251883.2      5066053.9    
       200   0.2            7699.6436      109038.34     -1641949.8      396105.34     -1245844.5      5026320.2    
       300   0.3            7763.1185      127530.47     -1634925.9      399370.78     -1235555.1      4986586.4    
       400   0.4            7812.8487      144611.99     -1624252.7      401929.13     -1222323.6      4946852.6    
       500   0.5            7866.088       160739.63     -1613572.4      404668.01     -1208904.4      4907118.9    
       600   0.6            8178.9974      176550.9      -1605265.5      420765.52     -1184499.9      4867385.1    
       700   0.7            8596.9693      197631.03     -1595989.8      442267.93     -1153721.8      4827651.4    
       800   0.8            9074.806       223248        -1583588.4      466850.06     -1116738.3      4787917.6    
       900   0.9            9544.4104      249273.64     -1570781.3      491008.69     -1079772.6      4748183.9    
      1000   1              9936.3197      271417.34     -1560131.6      511170.32     -1048961.2      4708450.1    
      1100   1.1            10351.837      294880.76     -1549805.5      532546.43     -1017259.1      4668716.4    
      1200   1.2            10757.98       320303.43     -1539354.2      553440.32     -985913.85      4628982.6    
      1300   1.3            11183.658      347571.72     -1529944        575339.2      -954604.83      4589248.8    
      1400   1.4            11665.348      374499.59     -1521244.5      600119.56     -921124.91      4549515.1    
      1500   1.5            12022.604      397986.11     -1512140.1      618498.46     -893641.61      4509781.3    
      1600   1.6            12374.731      423518.32     -1500849.1      636613.51     -864235.59      4470047.6    
      1700   1.7            12842.505      451118.27     -1490727.1      660677.93     -830049.2       4430313.8    
      1800   1.8            13390.856      480802.53     -1480098.7      688887.7      -791210.99      4390580.1    
      1900   1.9            13953.913      510771.77     -1468786.7      717853.95     -750932.79      4350846.3    
      2000   2              14467.696      540614.72     -1457910.6      744285.32     -713625.24      4311112.5    
      2100   2.1            14981.137      570573.93     -1447343.9      770699.07     -676644.81      4271378.8    
      2200   2.2            15536.715      601850.52     -1437663        799280.59     -638382.43      4231645      
      2300   2.3            16117.799      632952.89     -1428394.9      829174.26     -599220.63      4191911.3    
      2400   2.4            16619.359      665215.9      -1418456.6      854976.84     -563479.75      4152177.5    
      2500   2.5            17072.358      697447.81     -1409094.1      878281.17     -530812.89      4112443.8    
      2600   2.6            17535.981      729521.49     -1399634.8      902132.09     -497502.73      4072710      
      2700   2.7            18036.24       755672.13     -1390775.3      927867.75     -462907.55      4032976.3    
      2800   2.8            18453.166      782588.49     -1380812.2      949316.34     -431495.85      3993242.5    
      2900   2.9            18835.179      807483.43     -1371376.9      968968.87     -402408.07      3953508.7    
      3000   3              19140.754      833911.76     -1362067.4      984689.07     -377378.31      3913775      
      3100   3.1            19430.105      860412.15     -1354211.3      999574.6      -354636.67      3874041.2    
      3200   3.2            19758.248      887787.27     -1348416.5      1016455.8     -331960.72      3834307.5    
      3300   3.3            20121.289      915876.21     -1344668.7      1035132.3     -309536.35      379457