LAMMPS (24 Mar 2022)
OMP_NUM_THREADS environment is not set. Defaulting to 1 thread. (src/comm.cpp:98)
  using 1 OpenMP thread(s) per MPI task

# System init

units      metal
dimension  3
boundary   p p p
atom_style atomic
timestep   0.00025


# read data
read_data combined.data
Reading data file ...
  orthogonal box = (0 0 0) to (100.34625 100.34625 90.105015)
  2 by 3 by 1 MPI processor grid
  reading atoms ...
  68920 atoms
  read_data CPU = 0.133 seconds

# pair potential

pair_style hybrid/overlay eam/alloy edip/multi
pair_coeff * * eam/alloy Mishin-Ni-Al-2009.eam.alloy Al Ni NULL
pair_coeff * * edip/multi NiAlO.edip Al Ni O

mass 3 15.999


# reporting
thermo_style custom step time temp pe epair etotal press vol lx ly lz spcpu cpuremain elapsed
thermo 100

dump   1 all atom 100 generic.lammpstrj

# Single point
min_style cg
minimize 1e-5 1e-5 10000 100000

CITE-CITE-CITE-CITE-CITE-CITE-CITE-CITE-CITE-CITE-CITE-CITE-CITE

Your simulation uses code contributions which should be cited:

- @article{cjiang2012
 author    = {Jian, Chao and Morgan, Dane, and Szlufarska, Izabella},
 title     = {Carbon tri-interstitial defect: A model for DII center},
 journal   = {Physical Review B},
 volume    = {86},
 pages     = {144118},
 year      = {2012},
}

@article{lpizzagalli2010,
 author    = {G. Lucas, M. Bertolus, and L. Pizzagalli},
 journal   = {J. Phys. : Condens. Matter 22},
 volume    = {22},
 pages     = {035802},
 year      = {2010},
}

CITE-CITE-CITE-CITE-CITE-CITE-CITE-CITE-CITE-CITE-CITE-CITE-CITE

WARNING: Using 'neigh_modify every 1 delay 0 check yes' setting during minimization (src/min.cpp:187)
Neighbor list info ...
  update every 1 steps, delay 0 steps, check yes
  max neighbors/atom: 2000, page size: 100000
  master list distance cutoff = 8.28721
  ghost atom cutoff = 8.28721
  binsize = 4.143605, bins = 25 25 22
  3 neighbor lists, perpetual/occasional/extra = 3 0 0
  (1) pair eam/alloy, perpetual, skip from (3)
      attributes: half, newton on
      pair build: skip
      stencil: none
      bin: none
  (2) pair edip/multi, perpetual
      attributes: full, newton on
      pair build: full/bin/atomonly
      stencil: full/bin/3d
      bin: standard
  (3) neighbor class addition, perpetual, half/full from (2)
      attributes: half, newton on
      pair build: halffull/newton
      stencil: none
      bin: none
Per MPI rank memory allocation (min/avg/max) = 21.15 | 21.16 | 21.16 Mbytes
   Step          Time           Temp          PotEng         E_pair         TotEng         Press          Volume           Lx             Ly             Lz           S/CPU         CPULeft       Elapsed  
         0   0              0              2533482        2533482        2533482        902219.87      907300.69      100.34625      100.34625      90.105015      0              0                      0 
       100   0.025          0             -473944.65     -473944.65     -473944.65      2271.2722      907300.69      100.34625      100.34625      90.105015      7.0409817      1406.054             100 
       200   0.05           0             -477340.6      -477340.6      -477340.6       13364.528      907300.69      100.34625      100.34625      90.105015      6.7543794      1421.381             200 
       227   0.05675        0             -477602.91     -477602.91     -477602.91      14949.3        907300.69      100.34625      100.34625      90.105015      5.1872191      1472.9623            227 
Loop time of 34.2129 on 6 procs for 227 steps with 68920 atoms

99.9% CPU use with 6 MPI tasks x 1 OpenMP threads

Minimization stats:
  Stopping criterion = energy tolerance
  Energy initial, next-to-last, final = 
      2533481.98275214  -477599.528364627  -477602.906512338
  Force two-norm initial, final = 1.2880244e+10 69.672367
  Force max component initial, final = 1.7454114e+08 23.65752
  Final line search alpha, max atom move = 0.010861381 0.25695334
  Iterations, force evaluations = 227 373

MPI task timing breakdown:
Section |  min time  |  avg time  |  max time  |%varavg| %total
---------------------------------------------------------------
Pair    | 32.716     | 32.91      | 33.056     |   2.5 | 96.19
Neigh   | 0.19675    | 0.19896    | 0.20032    |   0.3 |  0.58
Comm    | 0.76127    | 0.90668    | 1.1025     |  14.9 |  2.65
Output  | 0.019124   | 0.019134   | 0.01916    |   0.0 |  0.06
Modify  | 0          | 0          | 0          |   0.0 |  0.00
Other   |            | 0.1778     |            |       |  0.52

Nlocal:        11486.7 ave       11519 max       11427 min
Histogram: 2 0 0 0 0 0 0 0 1 3
Nghost:        16453.5 ave       16576 max       16308 min
Histogram: 1 1 0 0 0 1 1 0 0 2
Neighs:              0 ave           0 max           0 min
Histogram: 6 0 0 0 0 0 0 0 0 0
FullNghs:  1.43626e+06 ave 1.44286e+06 max 1.42482e+06 min
Histogram: 2 0 0 0 0 0 0 0 1 3

Total # of neighbors = 8617550
Ave neighs/atom = 125.037
Neighbor list builds = 3
Dangerous builds = 0

# Thermalisation

velocity all create 300 1 mom yes rot no

fix 1 all npt temp 300 300 $(100.0*dt) iso 1.0 1.0 $(1000*dt)
fix 1 all npt temp 300 300 0.025000000000000001388 iso 1.0 1.0 $(1000*dt)
fix 1 all npt temp 300 300 0.025000000000000001388 iso 1.0 1.0 0.25

run  10000
Per MPI rank memory allocation (min/avg/max) = 18.9 | 18.91 | 18.91 Mbytes
   Step          Time           Temp          PotEng         E_pair         TotEng         Press          Volume           Lx             Ly             Lz           S/CPU         CPULeft       Elapsed  
       227   0              300           -477602.91     -477602.91     -474930.36      18095.546      907300.69      100.34625      100.34625      90.105015      0              0                      0 
       300   0.01825        160.44491     -476311.7      -476311.7      -474882.38      5844.9556      916102.45      100.66969      100.66969      90.395449      11.445007      867.3652              73 
       400   0.04325        166.06268     -476204.61     -476204.61     -474725.25     -6375.3788      918523.74      100.7583       100.7583       90.475018      10.044914      927.80598            173 
       500   0.06825        211.8803      -476400.33     -476400.33     -474512.8       2411.8245      923011.9       100.92215      100.92215      90.622141      11.279314      897.85563            273 
       600   0.09325        246.77268     -476475.26     -476475.26     -474276.89     -2414.419       924266.36      100.96785      100.96785      90.663177      11.445039      875.8973             373 
       700   0.11825        290.90987     -476648.58     -476648.58     -474057.02      2314.5377      925749.55      101.02183      101.02183      90.711647      11.469894      859.14786            473 
       800   0.14325        309.26343     -476680.21     -476680.21     -473925.15     -1135.7483      926760.65      101.05859      101.05859      90.74466       11.446934      845.48924            573 
       900   0.16825        318.19671     -476809.65     -476809.65     -473975        -340.49263      926760.86      101.0586       101.0586       90.744667      11.425222      833.5236             673 
      1000   0.19325        313.03252     -476965.9      -476965.9      -474177.25      888.83155      926980.15      101.06657      101.06657      90.751824      11.380543      822.79946            773 
      1100   0.21825        312.0603      -477138.78     -477138.78     -474358.8      -759.18121      927230.89      101.07568      101.07568      90.760006      11.258305      813.51654            873 
      1200   0.24325        308.15286     -477279.96     -477279.96     -474534.78      371.3679       927980.9       101.10293      101.10293      90.78447       11.30213       803.99644            973 
      1300   0.26825        301.38174     -477364.42     -477364.42     -474679.57     -868.67439      927989.45      101.10324      101.10324      90.784749      11.442228      793.70034           1073 
      1400   0.29325        299.99224     -477458.37     -477458.37     -474785.89     -322.29003      927589.84      101.08873      101.08873      90.771716      11.369157      784.09232           1173 
      1500   0.31825        297.22652     -477502.35     -477502.35     -474854.52      469.38844      928598.27      101.12534      101.12534      90.804598      11.192804      775.56198           1273 
      1600   0.34325        300.72571     -477567.56     -477567.56     -474888.55     -5.2499726      929654.66      101.16368      101.16368      90.839019      10.208102      772.38795           1373 
      1700   0.36825        297.09815     -477575.27     -477575.27     -474928.57      139.28841      930364.47      101.18942      101.18942      90.862132      10.625117      766.08908           1473 
      1800   0.39325        299.95749     -477620.91     -477620.91     -474948.75     -350.01508      930644.93      101.19958      101.19958      90.871261      10.382769      760.57133           1573 
      1900   0.41825        301.23514     -477653.98     -477653.98     -474970.44     -243.84702      931154.34      101.21805      101.21805      90.887838      9.8203439      757.30729           1673 
      2000   0.44325        300.82928     -477686.92     -477686.92     -475006.99      1134.5187      932339.67      101.26098      101.26098      90.926388      10.02276       752.30852           1773 
      2100   0.46825        300.5071      -477734.35     -477734.35     -475057.29     -444.01793      934061.09      101.32326      101.32326      90.982314      10.116434      746.37728           1873 
      2200   0.49325        301.47606     -477805.67     -477805.67     -475119.98      1097.9657      935838.02      101.38747      101.38747      91.039971      10.231732      739.59208           1973 
      2300   0.51825        300.3745      -477865.44     -477865.44     -475189.56     -532.7691       937052.68      101.43132      101.43132      91.079342      10.448707      731.74249           2073 
      2400   0.54325        298.94241     -477912.98     -477912.98     -475249.86     -56.750811      938298.7       101.47625      101.47625      91.119695      11.252892      721.27094           2173 
      2500   0.56825        300.16032     -477966.7      -477966.7      -475292.72      316.26099      938988.13      101.5011       101.5011       91.142006      11.180436      711.13462           2273 
      2600   0.59325        299.20713     -477998.88     -477998.88     -475333.4      -842.63957      940648.07      101.56088      101.56088      91.195682      11.269269      700.87217           2373 
      2700   0.61825        301.44208     -478061.16     -478061.16     -475375.77      859.30065      941954.06      101.60786      101.60786      91.237867      10.969413      691.46032           2473 
      2800   0.64325        299.73513     -478105.16     -478105.16     -475434.97      483.51597      943445.51      101.66146      101.66146      91.285996      11.263537      681.38432           2573 
      2900   0.66825        299.57508     -478163.14     -478163.14     -475494.38     -63.14373       944602.41      101.70299      101.70299      91.323294      11.180838      671.57793           2673 
      3000   0.69325        299.57218     -478222.46     -478222.46     -475553.73     -195.36245      945783.63      101.74537      101.74537      91.361345      11.088555      662.02775           2773 
      3100   0.71825        298.65861     -478266.98     -478266.98     -475606.39     -461.3368       946408.12      101.76776      101.76776      91.381448      11.016535      652.66084           2873 
      3200   0.74325        299.16833     -478300.8      -478300.8      -475635.67      250.11779      947774.47      101.81671      101.81671      91.425404      11.204298      642.95388           2973 
      3300   0.76825        298.38906     -478306.28     -478306.28     -475648.08     -1060.8533      948639.65      101.84768      101.84768      91.453214      10.674637      634.29605           3073 
      3400   0.79325        300.2183      -478317.82     -478317.82     -475643.33      826.92722      949480.74      101.87777      101.87777      91.480235      10.359196      626.20722           3173 
      3500   0.81825        301.20311     -478322.97     -478322.97     -475639.71     -549.04126      950950.41      101.93031      101.93031      91.52741       10.766889      617.27153           3273 
      3600   0.84325        299.68875     -478328.62     -478328.62     -475658.85      921.00288      951554.54      101.95189      101.95189      91.546788      9.4672421      610.82              3373 
      3700   0.86825        299.53541     -478349.07     -478349.07     -475680.67     -1111.5251      952947.56      102.00162      102.00162      91.59144       9.4212616      604.22859           3473 
      3800   0.89325        298.93999     -478360.72     -478360.72     -475697.62      1236.1288      953597.43      102.0248       102.0248       91.612255      10.252877      595.86339           3573 
      3900   0.91825        298.50734     -478361.42     -478361.42     -475702.17     -290.77813      954852.01      102.06952      102.06952      91.652414      9.9022452      588.01751           3673 
      4000   0.94325        299.44039     -478355.87     -478355.87     -475688.31     -134.23754      955602.71      102.09626      102.09626      91.676426      8.768149       582.20797           3773 
      4100   0.96825        299.87605     -478344.07     -478344.07     -475672.63      98.071353      956868.46      102.14132      102.14132      91.716885      8.3277693      577.06358           3873 
      4200   0.99325        300.44407     -478347.14     -478347.14     -475670.64     -432.64527      957852.69      102.17633      102.17633      91.748321      8.5158104      571.17144           3973 
      4300   1.01825        300.12789     -478364.16     -478364.16     -475690.48      1690.2137      958456.65      102.1978       102.1978       91.7676        9.7593533      562.81463           4073 
      4400   1.04325        300.43304     -478398.03     -478398.03     -475721.63     -372.73898      959343.46      102.22931      102.22931      91.795894      9.2329354      555.18301           4173 
      4500   1.06825        298.75068     -478405.14     -478405.14     -475743.72      244.67425      960059.78      102.25475      102.25475      91.818736      10.601908      545.52724           4273 
      4600   1.09325        299.82504     -478422.03     -478422.03     -475751.04     -12.74382       960779.4       102.28029      102.28029      91.841671      10.4759        536.02769           4373 
      4700   1.11825        300.65522     -478444.98     -478444.98     -475766.6      -95.901912      961148.47      102.29339      102.29339      91.85343       9.6628629      527.5185            4473 
      4800   1.14325        301.69831     -478477.22     -478477.22     -475789.54     -415.72688      961613.45      102.30988      102.30988      91.86824       9.7261955      518.84889           4573 
      4900   1.16825        299.16007     -478493.37     -478493.37     -475828.31      544.09179      962348.44      102.33594      102.33594      91.891639      10.033769      509.75101           4673 
      5000   1.19325        300.11293     -478532.92     -478532.92     -475859.37      1502.9771      963223.72      102.36695      102.36695      91.91949       10.613532      500.02055           4773 
      5100   1.21825        297.35327     -478525.63     -478525.63     -475876.67     -690.37751      963799.52      102.38735      102.38735      91.937803      10.383775      490.52209           4873 
      5200   1.24325        300.07845     -478537.76     -478537.76     -475864.52     -120.89135      965071.52      102.43237      102.43237      91.978231      10.545666      480.86888           4973 
      5300   1.26825        300.50748     -478529.7      -478529.7      -475852.64      293.74486      965973.04      102.46426      102.46426      92.006862      10.129271      471.60099           5073 
      5400   1.29325        301.15808     -478532.78     -478532.78     -475849.92      396.82429      966694.42      102.48976      102.48976      92.02976       9.0794253      463.3749            5173 
      5500   1.31825        300.35583     -478541.89     -478541.89     -475866.18     -259.52533      967499.13      102.51819      102.51819      92.055289      10.512931      453.69677           5273 
      5600   1.34325        298.39645     -478543.26     -478543.26     -475885         627.11469      967975.8       102.53502      102.53502      92.070405      10.410178      444.10568           5373 
      5700   1.36825        299.25378     -478549.94     -478549.94     -475884.04     -11.262194      968427.37      102.55096      102.55096      92.084719      10.131786      434.73236           5473 
      5800   1.39325        299.36665     -478547.26     -478547.26     -475880.35     -489.79769      968838.01      102.56546      102.56546      92.097733      9.9331193      425.49802           5573 
      5900   1.41825        300.28621     -478555.86     -478555.86     -475880.77     -817.34267      968967.2       102.57001      102.57001      92.101826      11.041978      415.46321           5673 
      6000   1.44325        300.28481     -478567.08     -478567.08     -475892        -252.43246      969141.59      102.57617      102.57617      92.107351      11.021593      405.47456           5773 
      6100   1.46825        300.96978     -478592.5      -478592.5      -475911.32      306.37502      969028.1       102.57216      102.57216      92.103756      10.82058       395.63554           5873 
      6200   1.49325        300.38052     -478607.53     -478607.53     -475931.59     -242.90378      968733.14      102.56176      102.56176      92.09441       11.060994      385.68108           5973 
      6300   1.51825        299.73813     -478624.11     -478624.11     -475953.9      -521.38638      968447.61      102.55168      102.55168      92.085361      11.220964      375.67338           6073 
      6400   1.54325        300.16031     -478646.52     -478646.52     -475972.55     -717.01119      968025.4       102.53677      102.53677      92.071977      11.266788      365.6787            6173 
      6500   1.56825        300.06563     -478663.68     -478663.68     -475990.55      203.93467      967825.47      102.52971      102.52971      92.065638      11.139034      355.78018           6273 
      6600   1.59325        299.85459     -478683.25     -478683.25     -476012        -1470.5923      967622.96      102.52256      102.52256      92.059216      10.989973      345.97987           6373 
      6700   1.61825        300.46432     -478713.93     -478713.93     -476037.24      852.81775      966765.71      102.49228      102.49228      92.032022      11.081175      336.16042           6473 
      6800   1.64325        299.90323     -478734.47     -478734.47     -476062.79      321.20503      966114         102.46924      102.46924      92.011337      10.866245      326.45822           6573 
      6900   1.66825        298.74662     -478738.08     -478738.08     -476076.7       722.66218      965475.56      102.44666      102.44666      91.991065      10.881259      316.76466           6673 
      7000   1.69325        301.73283     -478769.73     -478769.73     -476081.75     -1146.0802      965417.58      102.44461      102.44461      91.989223      11.058406      307.01582           6773 
      7100   1.71825        301.05135     -478793.08     -478793.08     -476111.18     -82.495483      964548.09      102.41385      102.41385      91.961599      11.102655      297.27113           6873 
      7200   1.74325        300.80138     -478833.64     -478833.64     -476153.96      80.960714      963837.31      102.38869      102.38869      91.939004      11.109491      287.54519           6973 
      7300   1.76825        299.07708     -478860.95     -478860.95     -476196.62     -745.62837      963238.56      102.36748      102.36748      91.919962      11.20145       277.80917           7073 
      7400   1.79325        298.73386     -478891.75     -478891.75     -476230.49     -140.41402      962342.12      102.33571      102.33571      91.891438      11.053542      268.14277           7173 
      7500   1.81825        298.99102     -478910.66     -478910.66     -476247.11      993.41219      961596.06      102.30926      102.30926      91.867686      11.112916      258.47528           7273 
      7600   1.84325        300.29263     -478923.96     -478923.96     -476248.81     -1373.52        961032.11      102.28926      102.28926      91.849723      11.179395      248.80687           7373 
      7700   1.86825        300.15401     -478935.61     -478935.61     -476261.7       368.15712      960081.33      102.25551      102.25551      91.819423      10.971052      239.21527           7473 
      7800   1.89325        301.58904     -478972.62     -478972.62     -476285.92      116.15796      959281.52      102.22711      102.22711      91.793919      11.142403      229.59133           7573 
      7900   1.91825        299.63404     -478992.47     -478992.47     -476323.19      205.17364      958693.01      102.2062       102.2062       91.775143      11.065692      220.00318           7673 
      8000   1.94325        298.86855     -479019.33     -479019.33     -476356.87      1586.3989      957570.19      102.16628      102.16628      91.7393        11.036082      210.43616           7773 
      8100   1.96825        299.52824     -479038.47     -479038.47     -476370.13     -992.07472      956751.41      102.13716      102.13716      91.713145      11.18266       200.84991           7873 
      8200   1.99325        299.75215     -479042.14     -479042.14     -476371.8      -226.2216       955632.21      102.09731      102.09731      91.67737       10.836067      191.35252           7973 
      8300   2.01825        300.83777     -479053.81     -479053.81     -476373.8       282.21507      954916.25      102.07181      102.07181      91.654469      10.802416      181.86866           8073 
      8400   2.04325        300.60031     -479058.43     -479058.43     -476380.54      51.76982       954212.61      102.04673      102.04673      91.631951      10.758595      172.39877           8173 
      8500   2.06825        300.38267     -479081.41     -479081.41     -476405.46     -967.19992      953243.29      102.01217      102.01217      91.600913      9.3604122      163.22294           8273 
      8600   2.09325        298.78042     -479097.32     -479097.32     -476435.64     -293.64145      952049.53      101.96957      101.96957      91.562659      10.66744       153.75675           8373 
      8700   2.11825        298.25363     -479105.17     -479105.17     -476448.19      343.74707      951148.48      101.93739      101.93739      91.533764      10.603876      144.30286           8473 
      8800   2.14325        299.1184      -479109.92     -479109.92     -476445.22      207.20166      949753.05      101.88751      101.88751      91.488979      10.716529      134.83301           8573 
      8900   2.16825        298.85173     -479098.69     -479098.69     -476436.37      387.3578       948879.1       101.85625      101.85625      91.460908      10.469482      125.40004           8673 
      9000   2.19325        301.50535     -479112.33     -479112.33     -476426.37     -779.96459      948052.58      101.82667      101.82667      91.434345      10.716589      115.93357           8773 
      9100   2.21825        301.31667     -479121.27     -479121.27     -476437         1085.9324      946779.7       101.78108      101.78108      91.393406      11.041359      106.43528           8873 
      9200   2.24325        299.79936     -479133.66     -479133.66     -476462.9      -465.81045      946024.87      101.75402      101.75402      91.369112      9.7028986      97.089827           8973 
      9300   2.26825        299.97346     -479155.12     -479155.12     -476482.81     -173.78557      944634.61      101.70415      101.70415      91.324331      9.1897302      87.781994           9073 
      9400   2.29325        299.73324     -479160.79     -479160.79     -476490.62     -1513.489       943737.32      101.67194      101.67194      91.295407      10.516244      78.316096           9173 
      9500   2.31825        300.63419     -479168.6      -479168.6      -476490.4       423.52793      942680.7       101.63398      101.63398      91.261322      10.309514      68.864215           9273 
      9600   2.34325        299.87331     -479163.03     -479163.03     -476491.61     -1097.5978      941687.76      101.59828      101.59828      91.229269      10.724112      59.38196            9373 
      9700   2.36825        301.47738     -479182.57     -479182.57     -476496.86     -264.82189      940651.1       101.56099      101.56099      91.195779      10.947177      49.892459           9473 
      9800   2.39325        299.60475     -479186.55     -479186.55     -476517.53      1427.7655      939604.26      101.5233       101.5233       91.161937      10.961812      40.409825           9573 
      9900   2.41825        299.59293     -479201.97     -479201.97     -476533.06     -40.926045      939108.45      101.50544      101.50544      91.145899      8.6708817      31.016116           9673 
     10000   2.44325        299.07998     -479202.47     -479202.47     -476538.12     -95.515427      938419.68      101.48062      101.48062      91.123611      10.527478      21.531388           9773 
     10100   2.46825        300.36838     -479209.2      -479209.2      -476533.38      1079.4846      937330.91      101.44135      101.44135      91.088356      8.7152074      12.07178            9873 
     10200   2.49325        299.65248     -479198.08     -479198.08     -476528.63     -220.49566      936832.6       101.42337      101.42337      91.072212      9.6775871      2.5686826           9973 
     10227   2.5            299.88688     -479198.05     -479198.05     -476526.52     -73.649565      936595.15      101.4148       101.4148       91.064517      10.183888      0                  10000 
Loop time of 951.447 on 6 procs for 10000 steps with 68920 atoms

Performance: 0.227 ns/day, 105.716 hours/ns, 10.510 timesteps/s
99.8% CPU use with 6 MPI tasks x 1 OpenMP threads

MPI task timing breakdown:
Section |  min time  |  avg time  |  max time  |%varavg| %total
---------------------------------------------------------------
Pair    | 883.15     | 888.55     | 896.39     |  14.4 | 93.39
Neigh   | 2.3543     | 2.3876     | 2.4034     |   1.0 |  0.25
Comm    | 45.293     | 53.15      | 58.6       |  59.1 |  5.59
Output  | 0.91583    | 0.98488    | 1.0502     |   4.6 |  0.10
Modify  | 4.9019     | 4.9747     | 5.0681     |   2.4 |  0.52
Other   |            | 1.402      |            |       |  0.15

Nlocal:        11486.7 ave       11526 max       11439 min
Histogram: 1 0 0 1 1 0 1 0 1 1
Nghost:        16594.2 ave       16693 max       16539 min
Histogram: 2 1 0 1 0 1 0 0 0 1
Neighs:              0 ave           0 max           0 min
Histogram: 6 0 0 0 0 0 0 0 0 0
FullNghs:  1.42242e+06 ave 1.42778e+06 max 1.41666e+06 min
Histogram: 2 0 1 0 0 0 0 0 1 2

Total # of neighbors = 8534508
Ave neighs/atom = 123.8321
Neighbor list builds = 36
Dangerous builds = 0

write_restart equil.init
System init for write_restart ...
write_data    equil.data
System init for write_data ...
Total wall time: 0:16:26
