LAMMPS (29 Sep 2021)
  using 1 OpenMP thread(s) per MPI task
Reading data file ...
  orthogonal box = (-0.55769526 -0.47818063 0.0000000) to (101.85676 101.77725 528.38451)
  3 by 2 by 16 MPI processor grid
  reading atoms ...
  434962 atoms
  reading velocities ...
  434962 velocities
  read_data CPU = 4.078 seconds
217465 atoms in group g_left
217497 atoms in group g_right

CITE-CITE-CITE-CITE-CITE-CITE-CITE-CITE-CITE-CITE-CITE-CITE-CITE

Your simulation uses code contributions which should be cited:
- @article{cjiang2012
The log file lists these citations in BibTeX format.

CITE-CITE-CITE-CITE-CITE-CITE-CITE-CITE-CITE-CITE-CITE-CITE-CITE

Neighbor list info ...
  update every 1 steps, delay 10 steps, check yes
  max neighbors/atom: 2000, page size: 100000
  master list distance cutoff = 8.28721
  ghost atom cutoff = 8.28721
  binsize = 4.143605, bins = 25 25 128
  3 neighbor lists, perpetual/occasional/extra = 3 0 0
  (1) pair eam/alloy, perpetual, skip from (3)
      attributes: half, newton on
      pair build: skip
      stencil: none
      bin: none
  (2) pair edip/multi, perpetual
      attributes: full, newton on
      pair build: full/bin/atomonly
      stencil: full/bin/3d
      bin: standard
  (3) neighbor class addition, perpetual, half/full from (2)
      attributes: half, newton on
      pair build: halffull/newton
      stencil: none
      bin: none
Setting up Verlet run ...
  Unit style    : metal
  Current step  : 0
  Time step     : 0.00025
Per MPI rank memory allocation (min/avg/max) = 8.763 | 12.51 | 14.56 Mbytes
Step Time Temp Press PotEng KinEng TotEng Volume 
       0            0    4825.5163    49060.941   -1918186.5    271305.59   -1646880.9    5533471.8 
     100        0.025    4824.9638    49149.041   -1918180.2    271274.53   -1646905.7    5525617.5 
     200         0.05      4824.78    49243.398   -1918180.7    271264.19   -1646916.5    5517763.2 
     300        0.075    4824.4919    49231.094   -1918165.7    271247.99   -1646917.7    5509908.9 
     400          0.1     4824.609    49360.522   -1918170.3    271254.58   -1646915.7    5502054.5 
     500        0.125    4824.5846    49381.706   -1918178.5    271253.21   -1646925.3    5494200.2 
     600         0.15    4824.4096    49450.379     -1918179    271243.37   -1646935.6    5486345.9 
     700        0.175    4824.3234    49582.056   -1918177.7    271238.52   -1646939.2    5478491.6 
     800          0.2    4824.0384    49742.689   -1918163.6     271222.5   -1646941.1    5470637.2 
     900        0.225    4823.8331    49610.394   -1918161.2    271210.95   -1646950.2    5462782.9 
    1000         0.25    4824.3737    49596.405   -1918197.9    271241.35   -1646956.5    5454928.6 
    1100        0.275    4824.5026    49611.695   -1918200.5     271248.6   -1646951.9    5447074.3 
    1200          0.3    4823.6135    49867.165   -1918147.5    271198.61   -1646948.9    5439219.9 
    1300        0.325    4824.3105    49896.509   -1918174.2     271237.8   -1646936.4    5431365.6 
    1400         0.35    4824.3841    50066.153   -1918184.1    271241.94   -1646942.1    5423511.3 
    1500        0.375    4824.2239    50040.489   -1918177.7    271232.93   -1646944.8      5415657 
    1600          0.4      4824.27    50091.395   -1918177.9    271235.52   -1646942.4    5407802.6 
    1700        0.425     4824.186    50010.011     -1918167     271230.8   -1646936.3    5399948.3 
    1800         0.45    4824.3525    50347.475   -1918184.3    271240.16   -1646944.2      5392094 
    1900        0.475    4824.1384    50580.948   -1918181.6    271228.12   -1646953.5    5384239.7 
    2000          0.5    4823.9236    50266.111   -1918181.9    271216.04   -1646965.8    5376385.3 
    2100        0.525    4824.1041    50416.986   -1918192.6    271226.19   -1646966.4      5368531 
    2200         0.55    4823.3488     50322.64   -1918158.1    271183.73   -1646974.4    5360676.7 
    2300        0.575    4823.1447     50580.88   -1918163.8    271172.25   -1646991.6    5352822.4 
    2400          0.6    4823.8617    50640.069   -1918207.2    271212.57   -1646994.7      5344968 
    2500        0.625    4823.4865    50914.342   -1918183.5    271191.47     -1646992    5337113.7 
    2600         0.65    4823.1935    50869.048   -1918166.6       271175   -1646991.6    5329259.4 
    2700        0.675    4823.1514    51065.441   -1918155.4    271172.63   -1646982.7    5321405.1 
    2800          0.7    4823.5101    50968.639   -1918177.5    271192.79   -1646984.7    5313550.7 
    2900        0.725    4824.0913    51071.664   -1918202.9    271225.47   -1646977.4    5305696.4 
    3000         0.75    4824.3113    51126.342     -1918200    271237.84   -1646962.2    5297842.1 
    3100        0.775    4823.8695    51281.778   -1918166.5       271213   -1646953.5    5289987.8 
    3200          0.8    4824.3252    51212.227   -1918197.5    271238.63   -1646958.9    5282133.4 
    3300        0.825    4826.4497    51085.686   -1918321.2    271358.07   -1646963.1    5274279.1 
    3400         0.85    4828.5442    51152.989   -1918439.9    271475.83     -1646964    5266424.8 
    3500        0.875    4824.3142      52495.5     -1918200    271238.01     -1646962    5258570.5 
    3600          0.9    4811.5229    55940.623   -1917490.7    270518.84   -1646971.9    5250716.1 
    3700        0.925    4788.0571    60813.545   -1916172.1    269199.52   -1646972.6    5242861.8 
    3800         0.95    4762.4249    66001.813   -1914731.2     267758.4   -1646972.8    5235007.5 
    3900        0.975    4737.6792     71002.48   -1913341.3    266367.12   -1646974.2    5227153.2 
    4000            1    4712.2578    75304.947   -1911916.1    264937.84   -1646978.2    5219298.8 
    4100        1.025     4687.265     78706.14     -1910504    263532.67   -1646971.3    5211444.5 
    4200         1.05     4661.187    81209.232   -1909035.8    262066.49   -1646969.3    5203590.2 
    4300        1.075    4634.5912    84309.227   -1907536.9    260571.19   -1646965.7    5195735.9 
    4400          1.1    4606.9372    87847.636   -1905974.6    259016.39   -1646958.2    5187881.5 
    4500        1.125     4579.204    90890.719   -1904401.8    257457.14   -1646944.6    5180027.2 
    4600         1.15    4551.6457    93900.585   -1902829.9    255907.73   -1646922.2    5172172.9 
    4700        1.175    4523.1996     97667.28   -1901225.3     254308.4   -1646916.9    5164318.6 
    4800          1.2    4495.6865    101366.82   -1899681.6    252761.53     -1646920    5156464.2 
    4900        1.225    4467.9284    104638.12   -1898117.3    251200.89   -1646916.4    5148609.9 
    5000         1.25    4439.8539    108086.92   -1896540.7    249622.45   -1646918.3    5140755.6 
    5100        1.275    4412.0837    111450.93   -1894977.8    248061.12   -1646916.7    5132901.3 
    5200          1.3    4382.8184    115167.85   -1893331.6    246415.74   -1646915.8    5125046.9 
    5300        1.325    4354.6379    118497.67     -1891743    244831.34   -1646911.7    5117192.6 
    5400         1.35     4326.628    121874.72   -1890173.7    243256.53   -1646917.2    5109338.3 
    5500        1.375    4297.0698    125750.28   -1888507.4    241594.68   -1646912.7      5101484 
    5600          1.4    4267.9728    129247.32   -1886881.8    239958.75   -1646923.1    5093629.6 
    5700        1.425     4238.761    132643.82   -1885248.7    238316.38   -1646932.4    5085775.3 
    5800         1.45    4210.5254    136171.43   -1883649.4    236728.89   -1646920.5      5077921 
    5900        1.475    4181.3281    139343.66   -1881998.1    235087.32   -1646910.8    5070066.6 
    6000          1.5    4152.5029    143118.29   -1880369.4    233466.68   -1646902.7    5062212.3 
    6100        1.525    4122.4344    146977.11   -1878676.6    231776.13   -1646900.5      5054358 
    6200         1.55    4092.1516    150550.04   -1876979.1    230073.54   -1646905.6    5046503.7 
    6300        1.575    4063.7458    154110.55   -1875386.7    228476.47   -1646910.2    5038649.3 
    6400          1.6    4033.4692    157883.11   -1873688.9    226774.23   -1646914.6      5030795 
    6500        1.625    4003.8192    161533.88   -1872009.8    225107.21   -1646902.6    5022940.7 
    6600         1.65    3973.9971    165079.54   -1870325.7    223430.52   -1646895.2    5015086.4 
    6700        1.675    3944.2873    169308.71   -1868652.6    221760.15   -1646892.5      5007232 
    6800          1.7    3914.8259    172651.42   -1866993.7    220103.73     -1646890    4999377.7 
    6900        1.725    3885.9683    176420.43   -1865366.4    218481.27   -1646885.2    4991523.4 
    7000         1.75    3856.2312    180108.73   -1863692.7    216809.36   -1646883.3    4983669.1 
    7100        1.775    3826.9894    183805.28   -1862043.2    215165.29   -1646877.9    4975814.7 
    7200          1.8     3797.188     187663.9   -1860359.6    213489.76   -1646869.9    4967960.4 
    7300        1.825    3767.7751    191462.65   -1858698.8    211836.08   -1646862.7    4960106.1 
    7400         1.85     3736.925    195314.35   -1856983.2    210101.59   -1646881.7    4952251.8 
    7500        1.875    3706.9428    198834.43   -1855314.9     208415.9     -1646899    4944397.4 
    7600          1.9     3677.213    202554.46   -1853647.5     206744.4   -1646903.1    4936543.1 
    7700        1.925    3647.7124    206897.15   -1851973.2    205085.78   -1646887.4    4928688.8 
    7800         1.95    3618.2534    210793.55   -1850319.4     203429.5   -1646889.9    4920834.5 
    7900        1.975    3589.6743    214237.33   -1848718.4     201822.7   -1646895.7    4912980.1 
    8000            2    3571.3106    217402.33   -1847688.5    200790.23   -1646898.3    4905125.8 
    8100        2.025    3572.2822    218711.45     -1847730    200844.86   -1646885.1    4897271.5 
    8200         2.05    3563.9927    219334.53   -1847270.5    200378.79   -1646891.7    4889417.2 
    8300        2.075    3555.8627    220147.83   -1846825.2     199921.7   -1646903.5    4881562.8 
    8400          2.1    3552.7951    221483.21   -1846652.7    199749.23   -1646903.5    4873708.5 
    8500        2.125    3545.5525    221968.29   -1846244.8    199342.03   -1646902.8    4865854.2 
    8600         2.15    3548.8086    223019.21   -1846412.3     199525.1   -1646887.2    4857999.9 
    8700        2.175      3543.67    223430.16   -1846104.8    199236.19   -1646868.6    4850145.5 
    8800          2.2     3534.753    224553.23   -1845604.2    198734.85   -1646869.4    4842291.2 
    8900        2.225    3537.0265    224863.91   -1845737.2    198862.67   -1646874.5    4834436.9 
    9000         2.25    3529.3486    225975.69   -1845314.4       198431   -1646883.4    4826582.6 
    9100        2.275    3532.7059    226176.53   -1845507.2    198619.75   -1646887.4    4818728.2 
    9200          2.3    3526.5989    226998.22   -1845162.2     198276.4   -1646885.8    4810873.9 
    9300        2.325    3525.2536    227703.05   -1845081.3    198200.76   -1646880.5    4803019.6 
    9400         2.35    3520.0763    228978.64     -1844789    197909.68   -1646879.3    4795165.3 
    9500        2.375    3500.8374    230676.18   -1843706.8    196828.01   -1646878.8    4787310.9 
    9600          2.4    3486.8967     232987.2   -1842932.7    196044.22   -1646888.5    4779456.6 
    9700        2.425    3457.4815    235922.81   -1841266.8     194390.4   -1646876.4    4771602.3 
    9800         2.45    3441.0546    238783.89   -1840339.5    193466.83   -1646872.7      4763748 
    9900        2.475    3411.3239    241215.99   -1838673.8    191795.28   -1646878.5    4755893.6 
   10000          2.5    3388.3932    244321.48   -1837383.7    190506.04   -1646877.7    4748039.3 
   10100        2.525    3361.7733    247252.47   -1835895.5    189009.39   -1646886.1      4740185 
   10200         2.55    3333.3521    250387.44   -1834301.2    187411.46   -1646889.7    4732330.7 
   10300        2.575    3308.8105    253371.35   -1832910.9    186031.65   -1646879.2    4724476.3 
   10400          2.6    3278.5563    257014.78   -1831215.9    184330.67   -1646885.2      4716622 
   10500        2.625    3250.6756    260613.69   -1829650.2    182763.13   -1646887.1    4708767.7 
   10600         2.65     3217.702     264181.6     -1827799    180909.25   -1646889.7    4700913.4 
   10700        2.675    3190.6625       267689   -1826280.6    179389.01   -1646891.6      4693059 
   10800          2.7    3158.8061    271125.04   -1824498.8    177597.94   -1646900.9    4685204.7 
   10900        2.725    3132.1596    274461.97   -1823006.5    176099.79   -1646906.7    4677350.4 
   11000         2.75    3099.1255    278079.81   -1821141.7    174242.51   -1646899.2    4669496.1 
   11100        2.775    3072.1436    281393.68   -1819619.7    172725.51   -1646894.2    4661641.7 
   11200          2.8    3038.8046    285069.71   -1817739.6    170851.08   -1646888.5    4653787.4 
   11300        2.825    3006.3879    288643.58   -1815910.3    169028.52   -1646881.8    4645933.1 
   11400         2.85    2972.0563    291870.94   -1813985.8    167098.28   -1646887.5    4638078.7 
   11500        2.875    2937.8779    295795.58   -1812067.4    165176.67   -1646890.7    4630224.4 
   11600          2.9    2902.7811    300501.36   -1810101.5    163203.41   -1646898.1    4622370.1 
   11700        2.925    2865.4393    304497.67   -1808004.5    161103.94   -1646900.5    4614515.8 
   11800         2.95    2829.4346    308525.05   -1805974.7    159079.64   -1646895.1    4606661.4 
   11900        2.975    2790.6204    312378.36     -1803787    156897.39   -1646889.6    4598807.1 
   12000            3     2752.797    316756.66   -1801655.3    154770.84   -1646884.4    4590952.8 
   12100        3.025    2710.3278    321906.62   -1799274.2    152383.09   -1646891.1    4583098.5 
   12200         3.05    2673.2591    326041.79   -1797195.6    150298.97   -1646896.7    4575244.1 
   12300        3.075    2633.7249       330629   -1794972.8    148076.24   -1646896.6    4567389.8 
   12400          3.1    2597.0534    334755.71   -1792912.8    146014.45   -1646898.4    4559535.5 
   12500        3.125     2559.098    339304.48   -1790771.3    143880.48   -1646890.8    4551681.2 
   12600         3.15    2526.7191    344564.97   -1788938.2    142060.04   -1646878.2    4543826.8 
   12700        3.175    2491.1542    348806.56   -1786939.2    140060.47   -1646878.8    4535972.5 
   12800          3.2    2462.3537    353798.54   -1785319.5    138441.21   -1646878.3    4528118.2 
   12900        3.225    2429.8467    357930.86   -1783493.6    136613.57   -1646880.1    4520263.9 
   13000         3.25    2403.1751    362270.83   -1781990.1       135114   -1646876.1    4512409.5 
   13100        3.275    2374.2629    366613.82   -1780357.4    133488.47   -1646868.9    4504555.2 
   13200          3.3      2351.06    370485.47   -1779040.9    132183.93     -1646857    4496700.9 
   13300        3.325    2325.3879    375097.09   -1777611.5    130740.57   -1646870.9    4488846.6 
   13400         3.35    2303.2007    379362.59   -1776374.8    129493.14   -1646881.6    4480992.2 
   13500        3.375    2282.0263    382752.88   -1775177.2    128302.65   -1646874.5    4473137.9 
   13600          3.4    2278.4198    385930.03   -1774971.6    128099.87   -1646871.7    4465283.6 
   13700        3.425     2284.311    386914.64   -1775304.7     128431.1   -1646873.6    4457429.3 
   13800         3.45     2287.914    388664.55   -1775499.4    128633.67   -1646865.8    4449574.9 
   13900        3.475    2297.5941    390580.72   -1776043.5    129177.91   -1646865.6    4441720.6 
   14000          3.5    2301.7385    393949.63   -1776263.7    129410.93   -1646852.8    4433866.3 
   14100        3.525     2300.047    396413.05   -1776154.7    129315.82   -1646838.9      4426012 
   14200         3.55    2304.3724    397922.76   -1776390.1    129559.01   -1646831.1    4418157.6 
   14300        3.575    2299.6398    399829.37   -1776134.4    129292.93   -1646841.5    4410303.3 
   14400          3.6    2306.8439    401619.76   -1776546.8    129697.97   -1646848.8      4402449 
   14500        3.625    2299.8779    402863.92   -1776156.4    129306.31   -1646850.1    4394594.7 
   14600         3.65    2303.5703    404222.89     -1776381    129513.92   -1646867.1    4386740.3 
   14700        3.675    2303.8846    404629.35   -1776415.3    129531.59   -1646883.7      4378886 
   14800          3.7    2300.5815    405933.24   -1776222.1    129345.87   -1646876.2    4371031.7 
   14900        3.725    2306.0887    407030.66     -1776535    129655.51   -1646879.5    4363177.4 
   15000         3.75    2294.4134    409645.84   -1775889.5    128999.09   -1646890.4      4355323 
   15100        3.775    2284.8846    412068.82   -1775353.4    128463.35     -1646890    4347468.7 
   15200          3.8    2257.8697    415554.06   -1773838.5    126944.48   -1646894.1    4339614.4 
   15300        3.825    2240.0604    419368.84   -1772844.4    125943.19   -1646901.2    4331760.1 
   15400         3.85    2213.3901    422920.54   -1771358.2     124443.7   -1646914.5    4323905.7 
   15500        3.875    2194.3589    426863.47   -1770290.2    123373.71   -1646916.5    4316051.4 
   15600          3.9    2165.3243    430900.08   -1768656.7    121741.29   -1646915.4    4308197.1 
   15700        3.925    2139.7058    435091.21   -1767224.1    120300.94   -1646923.2    4300342.8 
   15800         3.95    2113.2757    439173.07   -1765741.2    118814.96   -1646926.2    4292488.4 
   15900        3.975    2078.7286    444361.65   -1763804.3    116872.61   -1646931.7    4284634.1 
   16000            4    2046.9298    449387.97   -1762016.2    115084.79   -1646931.4    4276779.8 
   16100        4.025    2009.8643    455114.73   -1759922.3    113000.84   -1646921.5    4268925.5 
   16200         4.05     1974.062    460739.57   -1757918.9    110987.93     -1646931    4261071.1 
   16300        4.075    1935.4854    466422.72   -1755759.1    108819.03     -1646940    4253216.8 
   16400          4.1    1897.3653    472416.09   -1753607.5     106675.8   -1646931.7    4245362.5 
   16500        4.125     1857.224    478358.47   -1751357.4    104418.93   -1646938.5    4237508.2 
   16600         4.15    1813.3545    484048.99   -1748900.9    101952.45   -1646948.4    4229653.8 
   16700        4.175    1774.3367    490434.86   -1746710.7    99758.749     -1646952    4221799.5 
   16800          4.2    1727.2524    496524.11   -1744074.3    97111.521   -1646962.8    4213945.2 
   16900        4.225    1685.3322    503627.86   -1741723.5    94754.638   -1646968.8    4206090.8 
   17000         4.25    1638.9221       509973   -1739123.6    92145.316   -1646978.3    4198236.5 
   17100        4.275    1599.4546    515952.71   -1736924.6    89926.331   -1646998.2    4190382.2 
   17200          4.3    1552.2293    522593.95   -1734280.9    87271.174   -1647009.7    4182527.9 
   17300        4.325    1517.0544    528993.32     -1732301    85293.537   -1647007.5    4174673.5 
   17400         4.35    1472.0197    535127.61   -1729770.6    82761.544   -1647009.1    4166819.2 
   17500        4.375    1439.1177    540835.79   -1727938.3    80911.687   -1647026.6    4158964.9 
   17600          4.4    1403.5511    546130.52   -1725949.1    78912.023   -1647037.1    4151110.6 
   17700        4.425    1375.3397    551687.79   -1724358.7    77325.892   -1647032.8    4143256.2 
   17800         4.45    1344.4202     556374.9   -1722626.8    75587.498   -1647039.3    4135401.9 
   17900        4.475    1320.5539    562149.76   -1721295.5    74245.663   -1647049.9    4127547.6 
   18000          4.5    1293.5532     567058.8     -1719788    72727.597   -1647060.4    4119693.3 
   18100        4.525    1271.9643    572154.25   -1718569.1    71513.803   -1647055.3    4111838.9 
   18200         4.55    1248.8644    577376.38   -1717276.6    70215.057   -1647061.6    4103984.6 
   18300        4.575    1230.5017    581812.93     -1716259    69182.646   -1647076.4    4096130.3 
   18400          4.6    1212.8356    586401.24   -1715281.8    68189.401   -1647092.4      4088276 
   18500        4.625    1193.0565    590289.96   -1714182.6    67077.364   -1647105.3    4080421.6 
   18600         4.65    1176.5488    595263.05   -1713265.6    66149.249   -1647116.3    4072567.3 
   18700        4.675    1156.0983     599704.8   -1712137.2    64999.457   -1647137.7      4064713 
   18800          4.7    1137.9125     604632.7     -1711122    63976.991   -1647145.1    4056858.7 
   18900        4.725    1121.9018    609066.13   -1710229.5    63076.821   -1647152.6    4049004.3 
   19000         4.75    1104.8785    614096.29   -1709263.4    62119.719   -1647143.7      4041150 
   19100        4.775    1089.8101    618306.21   -1708419.9    61272.525   -1647147.3    4033295.7 
   19200          4.8    1091.9526    620310.52   -1708547.5    61392.982   -1647154.5    4025441.4 
   19300        4.825     1090.656    620696.65   -1708475.4    61320.087   -1647155.3      4017587 
   19400         4.85     1092.233    622674.59   -1708548.7    61408.752   -1647139.9    4009732.7 
   19500        4.875    1099.8587    623021.33     -1708918    61837.489   -1647080.5    4001878.4 
   19600          4.9    1103.0416    622964.42   -1708890.7     62016.44   -1646874.2    3994024.1 
   19700        4.925    1114.1606     623483.4   -1709000.9    62641.589   -1646359.3    3986169.7 
   19800         4.95    1126.6395    625240.07   -1706786.3    63343.192   -1643443.1    3978315.4 
   19900        4.975    1191.2918    628647.35   -1704542.8    66978.145   -1637564.7    3970461.1 
   20000            5    1193.3662     632680.3   -1700216.3    67094.776   -1633121.5    3962606.8 
   20100        5.025    1228.9895    636420.25   -1697457.4    69097.624   -1628359.8    3954752.4 
   20200         5.05    1255.2588    641636.27   -1692511.9    70574.567   -1621937.3    3946898.1 
   20300        5.075    1255.7615    648886.14   -1687196.1    70602.831   -1616593.3    3939043.8 
   20400          5.1    1233.2743    654647.21   -1681427.5     69338.53     -1612089    3931189.5 
   20500        5.125    1248.8152    661902.45   -1676081.3     70212.29     -1605869    3923335.1 
   20600         5.15    1269.2477    669928.73   -1669726.8    71361.069   -1598365.8    3915480.8 
   20700        5.175    1300.9422    677418.34   -1663917.2     73143.03   -1590774.2    3907626.5 
   20800          5.2    1320.6519     685404.8   -1657625.7    74251.171   -1583374.5    3899772.2 
   20900        5.225    1349.4117    696664.39   -1651209.6     75868.14   -1575341.4    3891917.8 
   21000         5.25    1383.2137    707134.55   -1644746.4    77768.594   -1566977.8    3884063.5 
   21100        5.275    1409.7441    717215.33   -1637875.8    79260.215   -1558615.6    3876209.2 
   21200          5.3    1451.0015    729402.37   -1631263.1    81579.833   -1549683.3    3868354.9 
   21300        5.325    1505.3437     741712.1   -1624482.6    84635.121   -1539847.5    3860500.5 
   21400         5.35    1557.3393    753962.14   -1617896.4    87558.475     -1530338    3852646.2 
   21500        5.375    1607.0082    766624.84   -1611304.2    90351.017   -1520953.2    3844791.9 
   21600          5.4    1675.2018    779134.49   -1605151.1    94185.075     -1510966    3836937.6 
   21700        5.425    1745.5849    791108.36   -1598967.9    98142.231   -1500825.6    3829083.2 
   21800         5.45    1822.0085    803528.37   -1593314.5    102439.01   -1490875.5    3821228.9 
   21900        5.475    1897.3452    816539.63     -1587468    106674.67   -1480793.4    3813374.6 
   22000          5.5    1982.8761     828104.9   -1582255.6    111483.49   -1470772.1    3805520.3 
   22100        5.525    2063.8718    839720.38   -1576856.8    116037.32   -1460819.5    3797665.9 
   22200         5.55    2158.0851    853111.85   -1572133.8    121334.28   -1450799.5    3789811.6 
   22300        5.575    2252.3013    864547.48   -1567565.3    126631.41   -1440933.9    3781957.3 
   22400          5.6    2347.7557    876555.48   -1563260.1    131998.15     -1431262    3774102.9 
   22500        5.625    2442.8915    888033.34   -1558989.9    137346.99     -1421643    3766248.6 
   22600         5.65    2531.1993    900671.57   -1554453.1    142311.93   -1412141.2    3758394.3 
   22700        5.675    2591.5576    914635.15   -1548503.1    145705.46   -1402797.7      3750540 
   22800          5.7    2637.5255    929160.71   -1541751.3    148289.92   -1393461.4    3742685.6 
   22900        5.725    2695.1531    941701.74   -1535916.8    151529.92   -1384386.8    3734831.3 
   23000         5.75    2785.2609    951039.95   -1531977.5    156596.07   -1375381.4      3726977 
   23100        5.775    2866.6033    956649.86   -1527687.9    161169.39   -1366518.6    3719122.7 
   23200          5.8     2955.026    961955.32   -1523903.8    166140.79     -1357763    3711268.3 
   23300        5.825    3053.8781    968470.51   -1520925.6    171698.56   -1349227.1      3703414 
   23400         5.85    3141.0625    975261.79   -1517344.1    176600.34   -1340743.7    3695559.7 
   23500        5.875    3239.7331    980256.37   -1514525.1    182147.91   -1332377.2    3687705.4 
   23600          5.9    3323.7433    985871.38   -1510929.6    186871.23   -1324058.3      3679851 
   23700        5.925    3394.7698    994147.17   -1506795.6    190864.56     -1315931    3671996.7 
   23800         5.95    3458.5782    1002692.5   -1502403.7    194452.06   -1307951.6    3664142.4 
   23900        5.975    3523.4366    1010117.1     -1498031     198098.6   -1299932.4    3656288.1 
   24000            6    3584.2404    1017352.9   -1493584.7    201517.19   -1292067.5    3648433.7 
   24100        6.025    3625.7345    1026277.9   -1488060.4    203850.11   -1284210.3    3640579.4 
   24200         6.05    3664.3596    1036877.8   -1482264.2    206021.74   -1276242.5    3632725.1 
   24300        6.075    3693.5864    1049017.2   -1475754.4    207664.96   -1268089.5    3624870.8 
   24400          6.1    3730.1792    1060524.2   -1469171.2    209722.32   -1259448.8    3617016.4 
   24500        6.125    3753.0018    1072344.7   -1461424.6    211005.48   -1250419.1    3609162.1 
   24600         6.15    3787.5158    1086342.4   -1453799.6    212945.96   -1240853.7    3601307.8 
   24700        6.175    3819.1849    1101119.9   -1445919.1     214726.5   -1231192.6    3593453.5 
   24800          6.2    3861.7606    1116535.8   -1438886.3    217120.23   -1221766.1    3585599.1 
   24900        6.225    3885.9913    1132895.3   -1431573.9    218482.56   -1213091.4    3577744.8 
   25000         6.25    3907.5705    1151376.1   -1424822.4    219695.81   -1205126.6    3569890.5 
   25100        6.275    3912.4009    1168809.6   -1417865.3    219967.39   -1197897.9    3562036.2 
   25200          6.3    3907.8288    1186279.5   -1410918.7    219710.33   -1191208.4    3554181.8 
   25300        6.325    3899.1658    1203755.9   -1404325.5    219223.27   -1185102.2    3546327.5 
   25400         6.35    3885.0917    1221558.9   -1397761.5    218431.98   -1179329.5    3538473.2 
   25500        6.375    3861.0513    1239489.2   -1390836.4    217080.36   -1173756.1    3530618.9 
   25600          6.4    3832.3954    1257081.3     -1383932    215469.24   -1168462.8    3522764.5 
   25700        6.425    3804.3039    1272524.1   -1377107.2    213889.84   -1163217.4    3514910.2 
   25800         6.45    3788.7112    1287167.4   -1371169.8    213013.17   -1158156.7    3507055.9 
   25900        6.475    3786.7723      1299759   -1366048.2    212904.16     -1153144    3499201.6 
   26000          6.5     3790.028    1310795.5   -1361461.8     213087.2   -1148374.6    3491347.2 
   26100        6.525    3801.2524    1320317.8   -1357387.1    213718.28   -1143668.8    3483492.9 
   26200         6.55    3828.4217      1330758   -1354415.1    215245.82   -1139169.3    3475638.6 
   26300        6.575    3861.7236    1339894.8   -1351726.3    217118.16   -1134608.1    3467784.3 
   26400          6.6    3914.3392    1347631.5   -1349944.2    220076.37   -1129867.8    3459929.9 
   26500        6.625    3985.1116    1352997.6   -1348697.8    224055.41   -1124642.4    3452075.6 
   26600         6.65    4053.7947      1357489   -1346788.8       227917   -1118871.8    3444221.3 
   26700        6.675    4151.3898      1361953   -1345781.2    233404.09   -1112377.1      3436367 
   26800          6.7    4240.9867    1366661.7   -1343815.1    238441.51   -1105373.5    3428512.6 
   26900        6.725    4344.0515    1372638.7   -1341991.2    244236.14   -1097755.1    3420658.3 
   27000         6.75    4440.6568    1378662.3   -1339457.7    249667.59   -1089790.1      3412804 
   27100        6.775    4503.9254    1388163.7   -1334561.1    253224.75   -1081336.4    3404949.7 
   27200          6.8    4582.5939    1400081.1   -1330066.6    257647.74   -1072418.9    3397095.3 
   27300        6.825    4663.8775    1413257.2   -1324964.6    262217.76   -1062746.8      3389241 
   27400         6.85    4739.5699    1425856.1   -1319061.6    266473.41   -1052588.2    3381386.7 
   27500        6.875    4835.0638    1438059.9   -1313855.4    271842.38     -1042013    3373532.4 
   27600          6.9    4908.4254    1450408.3   -1307240.9       275967   -1031273.9      3365678 
   27700        6.925    4999.2151    1462915.7   -1301170.2    281071.48   -1020098.7    3357823.7 
   27800         6.95    5086.1927    1477586.5   -1294518.8    285961.63   -1008557.2    3349969.4 
   27900        6.975     5178.827    1494304.2   -1287848.5    291169.82    -996678.7      3342115 
   28000            7    5263.2089    1510829.3     -1280815    295914.04   -984900.95    3334260.7 
   28100        7.025    5330.0159    1530288.1   -1272640.8    299670.13   -972970.67    3326406.4 
   28200         7.05    5398.1586    1551285.3   -1264498.5    303501.33    -960997.2    3318552.1 
   28300        7.075    5462.1925    1572351.5   -1255991.9    307101.51   -948890.35    3310697.7 
   28400          7.1    5516.4301    1593411.9   -1247224.6    310150.92   -937073.66    3302843.4 
   28500        7.125    5557.1752    1615624.6   -1238060.4    312441.74   -925618.67    3294989.1 
   28600         7.15     5600.237      1640484   -1229162.9    314862.81   -914300.12    3287134.8 
   28700        7.175    5642.4715      1666511   -1220431.7    317237.36   -903194.31    3279280.4 
   28800          7.2    5691.8631    1695792.1   -1212336.2    320014.31   -892321.93    3271426.1 
   28900        7.225    5727.4195      1723980   -1203778.1     322013.4   -881764.69    3263571.8 
   29000         7.25    5754.1381    1748454.5     -1194737    323515.61   -871221.35    3255717.5 
   29100        7.275    5788.0312    1765742.8   -1185947.6    325421.19   -860526.42    3247863.1 
   29200          7.3    5839.2786    1778798.2   -1178100.7    328302.48   -849798.27    3240008.8 
   29300        7.325    5893.0609    1792608.4   -1170579.6    331326.28   -839253.33    3232154.5 
   29400         7.35    5962.5552    1808909.8   -1163766.8    335233.47   -828533.37    3224300.2 
   29500        7.375    6032.1821      1825353   -1156832.9    339148.11   -817684.82    3216445.8 
   29600          7.4    6093.6295    1840408.9     -1149645    342602.87   -807042.09    3208591.5 
   29700        7.425    6152.5675    1855409.6   -1142532.3    345916.55    -796615.7    3200737.2 
   29800         7.45    6197.5861    1873205.7   -1134693.8    348447.64   -786246.21    3192882.9 
   29900        7.475    6224.2026    1892282.1   -1126059.7     349944.1   -776115.64    3185028.5 
   30000          7.5    6235.8557    1911497.2   -1116808.8    350599.28    -766209.5    3177174.2 
   30100        7.525    6226.0711    1929574.9   -1106827.2    350049.15   -756778.04    3169319.9 
   30200         7.55    6191.3103      1945765   -1095757.7     348094.8    -747662.9    3161465.6 
   30300        7.575    6149.9264    1965436.7   -1084559.3    345768.06   -738791.23    3153611.2 
   30400          7.6    6097.0685    1984215.7   -1073058.1    342796.23   -730261.88    3145756.9 
   30500        7.625    6029.4635    2005502.3   -1061033.7    338995.26   -722038.45    3137902.6 
   30600         7.65    5938.6042    2026482.4   -1048172.1    333886.87   -714285.27    3130048.3 
   30700        7.675    5849.1995    2051051.1   -1035650.1    328860.25   -706789.87    3122193.9 
   30800          7.7    5755.4409    2075024.5   -1023237.6    323588.85   -699648.71    3114339.6 
   30900        7.725    5650.9679    2099432.5   -1010641.8    317715.06   -692926.74    3106485.3 
   31000         7.75    5548.0485    2122812.5   -998317.87    311928.61   -686389.27      3098631 
   31100        7.775    5434.7536    2146461.3   -985736.08    305558.81   -680177.26    3090776.6 
   31200          7.8    5318.0717    2168711.9   -973430.57    298998.59   -674431.98    3082922.3 
   31300        7.825    5185.4884    2190022.7   -960516.19    291544.35   -668971.85      3075068 
   31400         7.85    5054.1091    2211767.3   -947858.52    284157.79   -663700.73    3067213.7 
   31500        7.875    4906.7377    2232504.6   -934628.22    275872.11    -658756.1    3059359.3 
   31600          7.9    4769.2812    2253653.9   -922233.12    268143.88   -654089.24      3051505 
   31700        7.925    4628.8398    2272442.5   -910044.99    260247.82   -649797.17    3043650.7 
   31800         7.95    4489.5538    2294100.9   -898157.84    252416.73   -645741.11    3035796.4 
   31900        7.975    4335.6619    2313601.1    -885608.9    243764.45   -641844.45      3027942 
   32000            8    4190.1975    2335484.7   -873696.96    235585.99   -638110.97    3020087.7 
   32100        8.025     4040.455    2351981.6   -861693.87    227166.99   -634526.88    3012233.4 
   32200         8.05    3889.8557    2371432.2   -849761.46    218699.83   -631061.63    3004379.1 
   32300        8.075    3730.4258    2387465.5   -837427.59    209736.19    -627691.4    2996524.7 
   32400          8.1    3586.2473    2402659.6   -825940.87    201630.02   -624310.86    2988670.4 
   32500        8.125    3433.7273    2416385.2   -813959.56    193054.87   -620904.69    2980816.1 
   32600         8.15    3294.3139    2430633.9   -802611.04    185216.61   -617394.43    2972961.8 
   32700        8.175     3161.638    2441918.1   -791277.61    177757.16   -613520.45    2965107.4 
   32800          8.2    3034.9907    2454864.7   -779658.64    170636.65   -609021.99    2957253.1 
   32900        8.225    2932.2476    2467533.1   -768551.26    164860.12   -603691.15    2949398.8 
   33000         8.25     2853.681    2482620.4   -757864.32    160442.85   -597421.47    2941544.5 
   33100        8.275    2791.3774    2498098.2   -747574.76    156939.95   -590634.81    2933690.1 
   33200          8.3    2727.4052    2514720.6    -737140.4    153343.23   -583797.17    2925835.8 
   33300        8.325    2669.4762    2534555.2   -727088.08    150086.29    -577001.8    2917981.5 
   33400         8.35    2617.0237    2553194.4   -717103.61    147137.24   -569966.37    2910127.1 
   33500        8.375    2585.2721    2573466.9   -707608.35    145352.07   -562256.28    2902272.8 
   33600          8.4    2573.3159    2592548.6   -698117.18    144679.86   -553437.32    2894418.5 
   33700        8.425    2582.8741    2613111.3   -689224.21    145217.24   -544006.96    2886564.2 
   33800         8.45    2587.4212    2632572.8   -679798.23     145472.9   -534325.33    2878709.8 
   33900        8.475    2634.1538    2652800.8   -672312.06    148100.35   -524211.71    2870855.5 
   34000          8.5    2671.4883    2676559.1   -663576.47    150199.41   -513377.06    2863001.2 
   34100        8.525    2726.3813    2700182.9   -655265.45    153285.67   -501979.78    2855146.9 
   34200         8.55    2771.1826    2726069.8   -646268.56    155804.54   -490464.02    2847292.5 
   34300        8.575    2822.0729    2751925.5   -637417.05    158665.75    -478751.3    2839438.2 
   34400          8.6    2853.9618      2777999   -627061.54    160458.64    -466602.9    2831583.9 
   34500        8.625     2901.448      2806089   -617235.53    163128.46   -454107.07    2823729.6 
   34600         8.65    2923.2873      2831996   -605837.35    164356.34   -441481.01    2815875.2 
   34700        8.675    2938.8362    2859909.2    -593931.4    165230.55   -428700.86    2808020.9 
   34800          8.7    2962.7015    2885791.3   -582296.45    166572.33   -415724.12    2800166.6 
   34900        8.725    2965.2313    2914080.9   -568922.31    166714.56   -402207.74    2792312.3 
   35000         8.75    2984.9186    2937698.7   -555978.85    167821.44   -388157.41    2784457.9 
   35100        8.775    2997.7138    2964036.8   -541991.31    168540.83   -373450.48    2776603.6 
   35200          8.8     3043.316    2987380.6   -529062.71    171104.73   -357957.99    2768749.3 
   35300        8.825    3077.1631    3012634.3   -514740.28    173007.72   -341732.57      2760895 
   35400         8.85    3129.6314    3039549.8   -500736.66    175957.65   -324779.01    2753040.6 
   35500        8.875    3179.8536    3065350.9   -486146.92     178781.3   -307365.62    2745186.3 
   35600          8.9    3233.6277    3090274.3   -471575.29    181804.65   -289770.64      2737332 
   35700        8.925     3293.025    3116834.4   -456862.88    185144.15   -271718.73    2729477.7 
   35800         8.95    3380.8877    3142731.4   -443360.75    190084.06   -253276.69    2721623.3 
   35900        8.975    3449.4473    3168641.3   -428341.97     193938.7   -234403.27      2713769 
   36000            9    3560.4033    3196221.3   -415198.74    200176.99   -215021.75    2705914.7 
   36100        9.025    3650.7298      3224784   -400432.91    205255.43   -195177.48    2698060.4 
   36200         9.05    3778.1568      3255151   -387526.98    212419.77   -175107.21      2690206 
   36300        9.075    3886.7589    3285079.8   -373078.56    218525.72   -154552.84    2682351.7 
   36400          9.1     4013.158    3316114.8   -359519.77    225632.27   -133887.49    2674497.4 
   36500        9.125     4129.653    3345787.9   -345071.27    232181.98   -112889.29    2666643.1 
   36600         9.15    4247.9405    3376506.8   -330553.46    238832.48   -91720.978    2658788.7 
   36700        9.175    4362.9757    3407090.9   -315930.08    245300.11   -70629.967    2650934.4 
   36800          9.2    4445.8567    3436696.6   -299549.61    249959.94   -49589.666    2643080.1 
   36900        9.225    4586.0143    3466602.9   -285956.57    257840.04   -28116.532    2635225.8 
   37000         9.25    4671.5171    3494344.1   -268954.01    262647.28   -6306.7368    2627371.4 
   37100        9.275    4787.0824    3524964.8   -253290.16    269144.72    15854.553    2619517.1 
   37200          9.3    4900.0908    3555946.7   -237159.78     275498.4    38338.624    2611662.8 
   37300        9.325    4995.7131    3587727.6   -219985.15    280874.59    60889.436    2603808.5 
   37400         9.35    5112.7596      3620456   -203748.16     287455.3    83707.147    2595954.1 
   37500        9.375    5219.8331      3653778   -186804.11    293475.31    106671.21    2588099.8 
   37600          9.4    5327.0576    3691661.9   -169885.84    299503.81    129617.96    2580245.5 
   37700        9.425    5427.8078    3729205.2   -152747.75     305168.3    152420.54    2572391.2 
   37800         9.45    5527.6634    3769117.1   -135997.58    310782.49    174784.92    2564536.8 
   37900        9.475    5621.6104    3808551.8   -118888.65    316064.48    197175.84    2556682.5 
   38000          9.5    5724.5253    3848050.6    -102482.2    321850.68    219368.49    2548828.2 
   38100        9.525    5805.2969    3889443.1   -85113.599    326391.92    241278.32    2540973.9 
   38200         9.55    5902.1239      3928965   -68647.254    331835.83    263188.58    2533119.5 
   38300        9.575    5999.1515    3972066.3   -51915.792    337291.02    285375.23    2525265.2 
   38400          9.6    6126.9046    4012004.4   -36891.052     344473.7    307582.65    2517410.9 
   38500        9.625    6238.3088    4053418.9   -20489.765     350737.2    330247.43    2509556.6 
   38600         9.65    6386.8694    4097184.7   -5660.9836    359089.73    353428.75    2501702.2 
   38700        9.675    6550.0884    4143624.9    8809.9357    368266.42    377076.35    2493847.9 
   38800          9.7    6722.3885    4189342.6    23246.691    377953.67    401200.36    2485993.6 
   38900        9.725    6912.6428    4238911.6    37385.201    388650.36    426035.56    2478139.2 
   39000         9.75    7099.4922    4287457.8     52284.74    399155.62    451440.36    2470284.9 
   39100        9.775     7301.717      4337930    66913.019    410525.33    477438.35    2462430.6 
   39200          9.8    7518.6198    4390773.7    81232.938    422720.28    503953.22    2454576.3 
   39300        9.825    7735.9759    4445531.7    95815.336    434940.72    530756.05    2446721.9 
   39400         9.85    7947.5262    4498527.3    110846.91    446834.74    557681.64    2438867.6 
   39500        9.875    8138.2633    4553750.3    127052.46    457558.57    584611.02    2431013.3 
   39600          9.9    8345.0042    4612237.9    142200.39    469182.19    611382.58      2423159 
   39700        9.925    8488.5236    4671759.7    160947.46     477251.3    638198.76    2415304.6 
   39800         9.95    8679.1726    4729840.3    176919.58    487970.18    664889.76    2407450.3 
   39900        9.975    8829.4109    4791183.8     195104.7    496417.05    691521.75      2399596 
   40000           10     8971.006    4854582.8    213836.53    504377.97    718214.49    2391741.7 
   40100       10.025    9095.7893    4916749.9    233668.56    511393.67    745062.24    2383887.3 
   40200        10.05    9217.8691    4977856.1    253668.96    518257.38    771926.33      2376033 
   40300       10.075    9314.6928    5042621.9    275001.46    523701.11    798702.57    2368178.7 
   40400         10.1    9413.1943    5105642.5    296271.73    529239.17     825510.9    2360324.4 
   40500       10.125     9493.525    5170888.3     318433.7    533755.61    852189.31      2352470 
   40600        10.15    9556.4888    5237394.8    341326.31    537295.63    878621.94    2344615.7 
   40700       10.175    9628.0274    5305209.9    363301.08    541317.76    904618.83    2336761.4 
   40800         10.2    9667.9071    5374703.4     386883.1    543559.92    930443.02    2328907.1 
   40900       10.225    9680.3871    5444187.8    411423.66    544261.58    955685.25    2321052.7 
   41000        10.25    9700.3854    5512823.5     435335.6    545385.95    980721.55    2313198.4 
   41100       10.275    9680.7894      5580913    461121.04     544284.2    1005405.2    2305344.1 
   41200         10.3    9657.2749    5651653.2    486701.38    542962.15    1029663.5    2297489.8 
   41300       10.325    9610.5083    5720572.3    513141.45    540332.78    1053474.2    2289635.4 
   41400        10.35    9541.3853    5789623.2    540636.51    536446.47      1077083    2281781.1 
   41500       10.375     9440.381    5861014.1    569822.69    530767.69    1100590.4    2273926.8 
   41600         10.4     9357.982    5932156.5    597616.75    526134.96    1123751.7    2266072.5 
   41700       10.425    9245.0532    6004838.7    627125.91    519785.76    1146911.7    2258218.1 
   41800        10.45    9124.7607    6083187.3    657045.99    513022.54    1170068.5    2250363.8 
   41900       10.475    9006.9337    6158965.4    686347.83    506397.93    1192745.8    2242509.5 
   42000         10.5    8900.3331    6237419.8    714911.36    500404.51    1215315.9    2234655.2 
   42100       10.525    8758.6388    6318663.7    745194.53    492438.02    1237632.5    2226800.8 
   42200        10.55    8647.3646    6402678.4    773476.12    486181.84      1259658    2218946.5 
   42300       10.575    8514.0661    6484787.1    802823.29    478687.38    1281510.7    2211092.2 
   42400         10.6    8410.6923    6571431.6    830228.35    472875.38    1303103.7    2203237.9 
   42500       10.625    8267.2621    6657521.8    859794.14    464811.29    1324605.4    2195383.5 
   42600        10.65    8166.7453    6744263.5    887024.44    459159.92    1346184.4    2187529.2 
   42700       10.675    8049.5017    6829782.5    915316.88    452568.11      1367885    2179674.9 
   42800         10.7    7950.0079    6914622.3    943343.19    446974.26    1390317.5    2171820.6 
   42900       10.725    7880.9174    6997467.4    970119.37    443089.78    1413209.2    2163966.2 
   43000        10.75    7812.0039    7082891.2    997971.67    439215.25    1437186.9    2156111.9 
   43100       10.775    7749.5081    7165904.3    1026728.4    435701.54    1462429.9    2148257.6 
   43200         10.8    7745.6604    7252149.5    1054080.1    435485.21    1489565.4    2140403.3 
   43300       10.825    7724.5105    7338022.2    1083992.6     434296.1    1518288.7    2132548.9 
   43400        10.85    7768.3668    7431312.1    1112386.5    436761.83    1549148.4    2124694.6 
   43500       10.875    7815.3499    7519614.7    1143026.5    439403.37    1582429.9    2116840.3 
   43600         10.9    7841.3334    7616086.7    1177272.4    440864.24    1618136.6      2108986 
   43700       10.925    7935.0866    7720522.5    1210304.9    446135.34    1656440.2    2101131.6 
   43800        10.95    8020.6237    7823748.4    1246754.1    450944.51    1697698.6    2093277.3 
   43900       10.975     8107.833    7931958.5    1285257.4    455847.69      1741105      2085423 
   44000           11     8271.561      8038712    1321928.6    465052.98    1786981.6    2077568.7 
   44100       11.025     8402.833      8154136    1362331.8    472433.51    1834765.3    2069714.3 
   44200        11.05    8591.5818    8270722.9    1400825.8    483045.55    1883871.3      2061860 
   44300       11.075    8747.0352    8388966.2    1442023.1    491785.63    1933808.8    2054005.7 
   44400         11.1    8925.3209    8508823.7    1482997.2     501809.4    1984806.6    2046151.3 
   44500       11.125    9105.4451    8634327.3    1524186.9    511936.55    2036123.5      2038297 
   44600        11.15    9227.5239    8762738.7    1569325.2     518800.2    2088125.4    2030442.7 
   44700       11.175    9362.4161    8893022.6    1613471.8    526384.26      2139856    2022588.4 
   44800         11.2    9468.9941      9028227    1659212.8    532376.41    2191589.2      2014734 
   44900       11.225    9569.8738    9164235.8    1705171.7    538048.18    2243219.9    2006879.7 
   45000        11.25    9633.0271    9305999.6    1753752.5    541598.86    2295351.4    1999025.4 
   45100       11.275    9727.0764    9441392.2    1800398.6     546886.6    2347285.2    1991171.1 
   45200         11.3    9833.5249    9580932.7    1846861.7    552871.47    2399733.2    1983316.7 
   45300       11.325    9972.5633    9712740.3    1892206.8    560688.64    2452895.4    1975462.4 
   45400        11.35    10161.788    9852287.6    1936244.3    571327.45    2507571.8    1967608.1 
   45500       11.375    10351.415    9992282.7    1981195.9     581988.9    2563184.8    1959753.8 
   45600         11.4    10565.685     10132851    2026190.9    594035.77    2620226.7    1951899.4 
   45700       11.425    10820.508     10283111      2070224    608362.76    2678586.8    1944045.1 
   45800        11.45     11084.29     10431923    2114975.4    623193.37    2738168.8    1936190.8 
   45900       11.475    11342.782     10589958    2160843.3    637726.64      2798570    1928336.5 
   46000         11.5    11633.818     10756828    2205399.1    654089.58    2859488.7    1920482.1 
   46100       11.525    11915.561     10924648    2251455.5    669930.02    2921385.5    1912627.8 
   46200        11.55    12207.817     11106777    2296841.4    686361.59      2983203    1904773.5 
   46300       11.575    12466.019     11292598    2343936.1    700878.53    3044814.6    1896919.2 
   46400         11.6    12669.368     11490243    2394033.3    712311.44    3106344.8    1889064.8 
   46500       11.625    12802.128     11679019    2446717.1     719775.6    3166492.7    1881210.5 
   46600        11.65    12866.792     11865835    2502688.7    723411.24    3226099.9    1873356.2 
   46700       11.675    12888.655     12049070    2559645.6    724640.44      3284286    1865501.9 
   46800         11.7      12829.3     12229513    2619741.5     721303.3    3341044.8    1857647.5 
   46900       11.725    12743.039     12410914    2680319.1    716453.45    3396772.5    1849793.2 
   47000        11.75    12656.754     12584880    2739822.1    711602.21    3451424.3    1841938.9 
   47100       11.775    12528.981     12759381    2801350.2    704418.44    3505768.7    1834084.6 
   47200         11.8    12367.083     12939504    2864243.8    695316.02    3559559.8    1826230.2 
   47300       11.825    12171.467     13115416    2929655.2    684317.85      3613973    1818375.9 
   47400        11.85    11983.115     13297043    2994801.6    673728.14    3668529.8    1810521.6 
   47500       11.875    11759.171     13478060    3062789.9    661137.29    3723927.2    1802667.3 
