LAMMPS (29 Sep 2021)
  using 1 OpenMP thread(s) per MPI task
Reading data file ...
  orthogonal box = (-0.31439309 -0.13068593 0.0000000) to (101.61346 101.42975 611.33702)
  3 by 2 by 16 MPI processor grid
  reading atoms ...
  458562 atoms
  reading velocities ...
  458562 velocities
  read_data CPU = 4.494 seconds
229280 atoms in group g_left
229282 atoms in group g_right

CITE-CITE-CITE-CITE-CITE-CITE-CITE-CITE-CITE-CITE-CITE-CITE-CITE

Your simulation uses code contributions which should be cited:
- @article{cjiang2012
The log file lists these citations in BibTeX format.

CITE-CITE-CITE-CITE-CITE-CITE-CITE-CITE-CITE-CITE-CITE-CITE-CITE

Neighbor list info ...
  update every 1 steps, delay 10 steps, check yes
  max neighbors/atom: 2000, page size: 100000
  master list distance cutoff = 8.28721
  ghost atom cutoff = 8.28721
  binsize = 4.143605, bins = 25 25 148
  3 neighbor lists, perpetual/occasional/extra = 3 0 0
  (1) pair eam/alloy, perpetual, skip from (3)
      attributes: half, newton on
      pair build: skip
      stencil: none
      bin: none
  (2) pair edip/multi, perpetual
      attributes: full, newton on
      pair build: full/bin/atomonly
      stencil: full/bin/3d
      bin: standard
  (3) neighbor class addition, perpetual, half/full from (2)
      attributes: half, newton on
      pair build: halffull/newton
      stencil: none
      bin: none
Setting up Verlet run ...
  Unit style    : metal
  Current step  : 0
  Time step     : 0.00025
Per MPI rank memory allocation (min/avg/max) = 8.813 | 12.37 | 18.51 Mbytes
Step Time Temp Press PotEng KinEng TotEng Volume 
       0            0    6965.4309    66612.717   -2005325.2    412866.59   -1592458.6    6328461.3 
     100        0.025    6964.8024    66680.894   -2005313.1    412829.34   -1592483.7    6318109.4 
     200         0.05    6965.2909    66909.357   -2005346.8    412858.29   -1592488.5    6307757.6 
     300        0.075    6964.7856    66786.718   -2005316.4    412828.34   -1592488.1    6297405.8 
     400          0.1     6964.785    67038.179     -2005326    412828.31   -1592497.7    6287053.9 
     500        0.125    6964.4547    66990.727   -2005323.7    412808.73     -1592515    6276702.1 
     600         0.15    6964.8453    67423.427   -2005346.7    412831.88   -1592514.8    6266350.2 
     700        0.175    6964.4587    67640.094   -2005301.9    412808.97   -1592492.9    6255998.4 
     800          0.2    6965.3675    67435.849   -2005338.5    412862.84   -1592475.6    6245646.6 
     900        0.225       6965.2    67753.428   -2005327.2    412852.91   -1592474.3    6235294.7 
    1000         0.25    6964.9127    67980.802   -2005314.3    412835.87   -1592478.4    6224942.9 
    1100        0.275    6965.4998    68003.608   -2005344.3    412870.68   -1592473.6    6214591.1 
    1200          0.3    6965.6135    68054.218   -2005339.6    412877.41   -1592462.2    6204239.2 
    1300        0.325    6965.4438    68033.088   -2005336.1    412867.36   -1592468.7    6193887.4 
    1400         0.35      6964.71    68413.005     -2005315    412823.86   -1592491.1    6183535.6 
    1500        0.375    6964.5173    68460.308     -2005318    412812.44   -1592505.5    6173183.7 
    1600          0.4     6964.473    68667.106   -2005312.7    412809.81   -1592502.9    6162831.9 
    1700        0.425    6964.9861    68416.098   -2005332.9    412840.23   -1592492.6      6152480 
    1800         0.45    6964.8314    68674.826   -2005314.8    412831.06   -1592483.7    6142128.2 
    1900        0.475    6965.0447    68853.768   -2005319.7     412843.7     -1592476    6131776.4 
    2000          0.5      6965.33    69104.311   -2005334.5    412860.61   -1592473.9    6121424.5 
    2100        0.525    6965.3815    69189.012   -2005340.7    412863.67     -1592477    6111072.7 
    2200         0.55    6966.4583    68973.911   -2005409.8    412927.49   -1592482.3    6100720.9 
    2300        0.575    6968.2344    69321.418   -2005509.8    413032.76     -1592477      6090369 
    2400          0.6    6959.9668    71304.937   -2005002.3    412542.71   -1592459.6    6080017.2 
    2500        0.625    6930.9128    75906.924   -2003265.6    410820.58   -1592445.1    6069665.3 
    2600         0.65    6889.8817    82378.004   -2000836.1    408388.52   -1592447.6    6059313.5 
    2700        0.675    6850.9262    88938.916   -1998539.2    406079.48   -1592459.8    6048961.7 
    2800          0.7    6808.2361     97129.12   -1996013.1    403549.08     -1592464    6038609.8 
    2900        0.725    6764.4707    104582.62     -1993421    400954.94   -1592466.1      6028258 
    3000         0.75    6725.6829    109830.78   -1991129.3    398655.85   -1592473.4    6017906.2 
    3100        0.775    6684.4548    115240.21   -1988697.6    396212.11   -1592485.5    6007554.3 
    3200          0.8    6638.5719     121613.8   -1985994.2    393492.47   -1592501.8    5997202.5 
    3300        0.825     6593.008    125354.36   -1983309.7    390791.72     -1592518    5986850.6 
    3400         0.85    6547.1089    127700.13   -1980598.9    388071.12   -1592527.8    5976498.8 
    3500        0.875    6499.8408     130546.7   -1977804.2    385269.36   -1592534.8      5966147 
    3600          0.9    6450.5774    134212.18   -1974890.5    382349.34   -1592541.2    5955795.1 
    3700        0.925    6402.8271    137544.42   -1972063.3       379519   -1592544.3    5945443.3 
    3800         0.95    6356.2463    141653.59   -1969296.4    376757.99   -1592538.4    5935091.5 
    3900        0.975    6307.0919    145907.39   -1966376.2    373844.43   -1592531.7    5924739.6 
    4000            1    6259.8577    149797.24     -1963578    371044.68   -1592533.3    5914387.8 
    4100        1.025    6213.0139    153821.29   -1960801.4    368268.08   -1592533.3    5904035.9 
    4200         1.05    6164.4784    158384.12   -1957922.1     365391.2   -1592530.9    5893684.1 
    4300        1.075    6115.1784    162929.01     -1954997    362469.02     -1592528    5883332.3 
    4400          1.1    6066.2809     167305.3   -1952097.3    359570.68   -1592526.6    5872980.4 
    4500        1.125    6015.7845    172163.76   -1949106.3    356577.57   -1592528.8    5862628.6 
    4600         1.15    5965.7909    177204.22   -1946152.3    353614.27   -1592538.1    5852276.8 
    4700        1.175     5915.397    181228.96   -1943174.1    350627.24   -1592546.8    5841924.9 
    4800          1.2    5866.0919     185717.7   -1940257.2    347704.74   -1592552.5    5831573.1 
    4900        1.225    5814.2121     190748.3   -1937183.6    344629.64   -1592553.9    5821221.2 
    5000         1.25    5765.4018    195621.18   -1934288.1    341736.47   -1592551.7    5810869.4 
    5100        1.275    5712.8355    199868.33   -1931159.2    338620.68   -1592538.5    5800517.6 
    5200          1.3    5662.2899    205023.62   -1928143.5    335624.65   -1592518.8    5790165.7 
    5300        1.325    5610.9305    209701.35   -1925091.2    332580.39   -1592510.8    5779813.9 
    5400         1.35    5558.6591    214197.49   -1922000.9    329482.07   -1592518.8    5769462.1 
    5500        1.375    5507.2169    219603.38     -1918967    326432.91   -1592534.1    5759110.2 
    5600          1.4    5455.1352    224549.74   -1915884.1    323345.84   -1592538.3    5748758.4 
    5700        1.425     5403.512    229306.01   -1912813.8    320285.94   -1592527.9    5738406.6 
    5800         1.45    5378.2744     232427.9   -1911304.1    318790.01   -1592514.1    5728054.7 
    5900        1.475    5370.9745     233529.3   -1910874.4    318357.33   -1592517.1    5717702.9 
    6000          1.5    5342.3731    234498.93   -1909198.1    316662.01   -1592536.1      5707351 
    6100        1.525    5320.1053     235597.8   -1907885.1    315342.12     -1592543    5696999.2 
    6200         1.55    5315.8456    238069.13   -1907624.8    315089.63   -1592535.2    5686647.4 
    6300        1.575    5286.8509    239509.26   -1905900.1    313371.01   -1592529.1    5676295.5 
    6400          1.6    5291.0581    240478.49   -1906162.9    313620.39   -1592542.5    5665943.7 
    6500        1.625    5270.7746    241610.06   -1904971.2    312418.11   -1592553.1    5655591.9 
    6600         1.65    5257.2042    242313.55   -1904156.6    311613.74   -1592542.8      5645240 
    6700        1.675    5256.7075    244242.05   -1904115.7     311584.3   -1592531.4    5634888.2 
    6800          1.7    5234.9515    245119.68   -1902831.5    310294.74   -1592536.8    5624536.3 
    6900        1.725    5241.6414    245756.32   -1903246.5    310691.28   -1592555.2    5614184.5 
    7000         1.75    5219.8242    246812.25   -1901965.2    309398.09   -1592567.1    5603832.7 
    7100        1.775    5221.3806    246999.85     -1902053    309490.34   -1592562.7    5593480.8 
    7200          1.8    5208.8315    248167.23   -1901313.5    308746.51     -1592567      5583129 
    7300        1.825    5203.4562    248305.35   -1901017.8     308427.9   -1592589.9    5572777.2 
    7400         1.85    5200.2925    248677.34     -1900841    308240.38   -1592600.6    5562425.3 
    7500        1.875    5191.8348    248163.06   -1900316.4    307739.06   -1592577.4    5552073.5 
    7600          1.9    5192.8381    247819.65     -1900345    307798.53   -1592546.5    5541721.6 
    7700        1.925    5182.5734    248038.85   -1899737.7     307190.1   -1592547.6    5531369.8 
    7800         1.95    5181.7131    247971.86   -1899709.3    307139.11   -1592570.2      5521018 
    7900        1.975    5172.0318    247186.93   -1899142.5    306565.26   -1592577.2    5510666.1 
    8000            2    5168.7018    246612.23   -1898931.6    306367.88   -1592563.7    5500314.3 
    8100        2.025    5155.1572     246400.7   -1898122.1    305565.04     -1592557    5489962.5 
    8200         2.05     5144.839     245816.7   -1897523.7    304953.44   -1592570.3    5479610.6 
    8300        2.075    5129.4659    245970.89   -1896622.6    304042.22   -1592580.4    5469258.8 
    8400          2.1    5114.1434    246094.12   -1895707.9       303134   -1592573.9    5458906.9 
    8500        2.125     5098.676    246940.96   -1894777.9    302217.19   -1592560.7    5448555.1 
    8600         2.15    5080.8847    247655.66   -1893720.5    301162.64   -1592557.9    5438203.3 
    8700        2.175    5066.8728    249014.67   -1892894.8     300332.1   -1592562.7    5427851.4 
    8800          2.2    5037.5054    250512.38   -1891156.7    298591.39   -1592565.3    5417499.6 
    8900        2.225     4993.542    253446.44   -1888548.7    295985.52   -1592563.2    5407147.8 
    9000         2.25    4939.2895    257145.77   -1885328.5    292769.77   -1592558.8    5396795.9 
    9100        2.275    4881.2001    261233.45   -1881885.5     289326.6   -1592558.9    5386444.1 
    9200          2.3    4826.4632    265555.12   -1878641.6    286082.15   -1592559.5    5376092.2 
    9300        2.325    4770.1399    269844.58   -1875306.3    282743.66   -1592562.6    5365740.4 
    9400         2.35     4710.782    274710.77   -1871797.9     279225.3   -1592572.6    5355388.6 
    9500        2.375    4653.6363    279615.99     -1868415    275838.06     -1592577    5345036.7 
    9600          2.4    4593.2868    284131.56   -1864831.4    272260.92   -1592570.4    5334684.9 
    9700        2.425    4531.5947    288582.45   -1861165.5    268604.21   -1592561.3    5324333.1 
    9800         2.45     4470.126    293243.17   -1857523.1    264960.73   -1592562.3    5313981.2 
    9900        2.475    4407.9107    298723.68   -1853850.7       261273   -1592577.7    5303629.4 
   10000          2.5    4344.8122    303750.92   -1850117.8    257532.93   -1592584.9    5293277.5 
   10100        2.525    4275.5387    308897.42   -1845996.9    253426.83   -1592570.1    5282925.7 
   10200         2.55    4213.1687    314360.05   -1842279.3    249729.93   -1592549.4    5272573.9 
   10300        2.575    4144.7629    319407.25   -1838228.6    245675.27   -1592553.3      5262222 
   10400          2.6    4078.5693    324168.76   -1834325.3    241751.73   -1592573.6    5251870.2 
   10500        2.625    4010.0726     329961.3   -1830269.8    237691.68   -1592578.1    5241518.4 
   10600         2.65    3947.7581    335803.84   -1826569.1    233998.08     -1592571    5231166.5 
   10700        2.675    3884.3013    341741.84   -1822815.1    230236.76   -1592578.4    5220814.7 
   10800          2.7    3823.6424    347324.33   -1819243.7    226641.29   -1592602.4    5210462.9 
   10900        2.725    3768.7447    352627.98   -1816004.5     223387.3   -1592617.2      5200111 
   11000         2.75    3716.7847    358651.72   -1812923.5    220307.44     -1592616    5189759.2 
   11100        2.775     3665.968       363762   -1809905.2    217295.34   -1592609.9    5179407.3 
   11200          2.8    3618.9122    369147.18   -1807116.8    214506.18   -1592610.6    5169055.5 
   11300        2.825    3573.5581    374897.22     -1804440    211817.87   -1592622.1    5158703.7 
   11400         2.85    3535.7912    379507.68   -1802200.8    209579.29   -1592621.5    5148351.8 
   11500        2.875    3541.0945    381936.07   -1802502.3    209893.64   -1592608.6      5138000 
   11600          2.9    3529.0299    382335.03     -1801782    209178.53   -1592603.5    5127648.2 
   11700        2.925    3513.1344    384381.25   -1800838.4    208236.34   -1592602.1    5117296.3 
   11800         2.95    3520.7862    385951.51   -1801285.8    208689.89   -1592595.9    5106944.5 
   11900        2.975    3502.9671    388427.72   -1800227.8    207633.69   -1592594.2    5096592.6 
   12000            3    3507.2792    390508.38   -1800489.5    207889.28   -1592600.2    5086240.8 
   12100        3.025    3512.1393    391377.64   -1800788.7    208177.36   -1592611.4      5075889 
   12200         3.05    3492.8161    392889.06   -1799647.1       207032   -1592615.1    5065537.1 
   12300        3.075    3524.8449    395068.65   -1801539.5    208930.46     -1592609    5055185.3 
   12400          3.1     3501.559    396565.61   -1800152.6    207550.22   -1592602.3    5044833.5 
   12500        3.125    3518.0236    397589.74     -1801129    208526.14   -1592602.9    5034481.6 
   12600         3.15     3518.887    399159.53   -1801174.7    208577.32   -1592597.3    5024129.8 
   12700        3.175    3519.8964    401503.79   -1801221.1    208637.15   -1592583.9    5013777.9 
   12800          3.2    3531.5093    404510.58   -1801902.7    209325.49   -1592577.2    5003426.1 
   12900        3.225    3520.7538     408653.1   -1801270.2    208687.97   -1592582.3    4993074.3 
   13000         3.25    3540.7997     412027.4   -1802460.5    209876.16   -1592584.4    4982722.4 
   13100        3.275    3523.3268    414896.22   -1801423.5    208840.48     -1592583    4972370.6 
   13200          3.3    3535.6123    418476.65   -1802146.6    209568.69   -1592577.9    4962018.8 
   13300        3.325    3521.5453     422321.2   -1801305.1    208734.88   -1592570.2    4951666.9 
   13400         3.35    3518.8839    426959.12   -1801142.7    208577.13   -1592565.6    4941315.1 
   13500        3.375    3510.8681    432280.18   -1800668.7    208102.01   -1592566.7    4930963.2 
   13600          3.4    3494.1508    436435.25   -1799677.3    207111.11   -1592566.2    4920611.4 
   13700        3.425    3486.3257    441557.52   -1799206.3    206647.29     -1592559    4910259.6 
   13800         3.45    3460.7777    445851.45   -1797686.7    205132.97   -1592553.7    4899907.7 
   13900        3.475    3449.8048    451337.84   -1797039.6    204482.56   -1592557.1    4889555.9 
   14000          3.5    3421.1129       455633     -1795349    202781.88   -1592567.2    4879204.1 
   14100        3.525    3406.2872    459128.06   -1794478.3    201903.11   -1592575.2    4868852.2 
   14200         3.55    3380.9304    463848.85   -1792975.4    200400.13   -1592575.2    4858500.4 
   14300        3.575    3357.3323    467848.57   -1791578.3    199001.38   -1592576.9    4848148.5 
   14400          3.6    3328.2183    472147.92   -1789859.7    197275.68     -1592584    4837796.7 
   14500        3.625    3270.8348    477608.57   -1786462.3    193874.36     -1592588    4827444.9 
   14600         3.65    3220.4862    485435.08   -1783480.1    190890.01   -1592590.1      4817093 
   14700        3.675    3146.1882    491962.58   -1779075.7    186486.09   -1592589.7    4806741.2 
   14800          3.7    3080.7899    499332.77   -1775198.8     182609.7   -1592589.1    4796389.4 
   14900        3.725    3012.8272    506620.08   -1771168.5     178581.3   -1592587.2    4786037.5 
   15000         3.75     2944.481    513755.58   -1767112.8    174530.17   -1592582.6    4775685.7 
   15100        3.775    2874.2934    522315.72   -1762944.1    170369.89   -1592574.2    4765333.9 
   15200          3.8    2807.1072     529397.5   -1758953.9    166387.52   -1592566.4      4754982 
   15300        3.825    2736.7083     536086.8   -1754778.8    162214.72   -1592564.1    4744630.2 
   15400         3.85    2674.7757    544412.87   -1751110.2    158543.75   -1592566.5    4734278.3 
   15500        3.875    2618.4106    550358.85   -1747772.8    155202.78     -1592570    4723926.5 
   15600          3.9    2561.5055     557556.2   -1744402.4    151829.81   -1592572.6    4713574.7 
   15700        3.925    2507.6939    564591.79   -1741214.8     148640.2   -1592574.6    4703222.8 
   15800         3.95    2456.6331    570173.91   -1738192.2    145613.64   -1592578.5      4692871 
   15900        3.975     2414.104    575741.51   -1735670.3    143092.78   -1592577.5    4682519.2 
   16000            4    2371.1496    580739.18   -1733113.8    140546.72   -1592567.1    4672167.3 
   16100        4.025    2330.9918    586108.17   -1730724.3    138166.42   -1592557.9    4661815.5 
   16200         4.05    2284.6443    590929.51   -1727971.2    135419.24     -1592552    4651463.6 
   16300        4.075    2248.4072    595310.09   -1725823.5    133271.33   -1592552.2    4641111.8 
   16400          4.1    2207.1845    600602.25   -1723385.2    130827.91   -1592557.3      4630760 
   16500        4.125    2166.2914    605630.62   -1720960.3    128404.02   -1592556.2    4620408.1 
   16600         4.15    2134.8936    611084.19   -1719092.6    126542.96   -1592549.6    4610056.3 
   16700        4.175    2099.4167    614551.65   -1716982.5    124440.12   -1592542.4    4599704.5 
   16800          4.2    2066.3876     619420.6   -1715021.9    122482.36   -1592539.5    4589352.6 
   16900        4.225    2031.6951    624071.35     -1712959    120426.01     -1592533    4579000.8 
   17000         4.25    1998.6293    627943.98   -1710989.3    118466.08   -1592523.2    4568648.9 
   17100        4.275    1990.0603    630354.24   -1710471.6    117958.16   -1592513.4    4558297.1 
   17200          4.3    1999.0119    630001.34   -1710993.3    118488.75   -1592504.5    4547945.3 
   17300        4.325    1991.1143    629082.39   -1710520.2    118020.64   -1592499.6    4537593.4 
   17400         4.35    1986.4734    629108.99   -1710246.1    117745.55   -1592500.6    4527241.6 
   17500        4.375    1994.0306    630686.29     -1710702    118193.49   -1592508.5    4516889.8 
   17600          4.4    1966.4072    631888.62   -1709072.8    116556.15   -1592516.7    4506537.9 
   17700        4.425    1984.0985    631955.78   -1710123.9    117604.78   -1592519.1    4496186.1 
   17800         4.45    1967.1251    632389.18   -1709110.6    116598.71   -1592511.9    4485834.2 
   17900        4.475    1955.7726     633351.8     -1708430     115925.8   -1592504.2    4475482.4 
   18000          4.5    1965.7836    633664.65   -1709021.7    116519.19   -1592502.5    4465130.6 
   18100        4.525    1924.9747    636748.53   -1706606.3     114100.3     -1592506    4454778.7 
   18200         4.55    1925.9286    637562.26   -1706650.9    114156.84     -1592494    4444426.9 
   18300        4.575    1890.0324    639643.53   -1704469.4    112029.14   -1592440.3    4434075.1 
   18400          4.6    1879.8781    640372.31   -1703677.8    111427.26   -1592250.6    4423723.2 
   18500        4.625    1860.3305    641022.76   -1702261.4     110268.6   -1591992.8    4413371.4 
   18600         4.65    1827.0277    643101.54   -1699735.7    108294.62   -1591441.1    4403019.5 
   18700        4.675    1858.8512    648905.21   -1692881.4    110180.92   -1582700.5    4392667.7 
   18800          4.7    1908.3724    656525.97   -1685952.6    113116.22   -1572836.4    4382315.9 
   18900        4.725    1938.4105    663412.85   -1679754.1    114896.69   -1564857.4      4371964 
   19000         4.75    1939.5037    670444.59   -1672628.8    114961.48   -1557667.3    4361612.2 
   19100        4.775    1947.6563    677524.67   -1665935.4    115444.72   -1550490.7    4351260.4 
   19200          4.8    1962.3191    684157.52   -1659143.1    116313.84   -1542829.3    4340908.5 
   19300        4.825    1984.6539    692821.72   -1652229.8     117637.7   -1534592.1    4330556.7 
   19400         4.85    2000.1217    700709.78     -1645566    118554.54   -1527011.4    4320204.9 
   19500        4.875    1977.9786    712243.81   -1637040.1    117242.03     -1519798      4309853 
   19600          4.9    1987.2614    721807.12   -1629704.9    117792.26   -1511912.6    4299501.2 
   19700        4.925    1967.7127    731145.86   -1620701.1    116633.53   -1504067.5    4289149.3 
   19800         4.95    1954.1915    742095.41   -1612635.3    115832.09   -1496803.2    4278797.5 
   19900        4.975    1939.3549    751313.58   -1604147.9    114952.67   -1489195.2    4268445.7 
   20000            5    1939.1326    761571.59   -1595937.2    114939.49   -1480997.7    4258093.8 
   20100        5.025    1937.2281    772138.73   -1587451.3     114826.6   -1472624.7      4247742 
   20200         5.05    1952.4885    783563.73   -1579255.8    115731.14   -1463524.6    4237390.2 
   20300        5.075    1966.8107    795591.28   -1570176.1    116580.07   -1453596.1    4227038.3 
   20400          5.1    1998.2934    808807.08   -1561775.4    118446.17   -1443329.2    4216686.5 
   20500        5.125    2016.2348    821636.84   -1552405.6    119509.62     -1432896    4206334.6 
   20600         5.15    2059.1608    835323.14   -1543431.5       122054   -1421377.5    4195982.8 
   20700        5.175    2106.5574    850606.82   -1533922.1    124863.37   -1409058.8      4185631 
   20800          5.2    2172.2833    863080.74   -1525515.1    128759.18     -1396756    4175279.1 
   20900        5.225    2231.5559    876907.07   -1516659.8    132272.49   -1384387.3    4164927.3 
   21000         5.25    2301.0766    890949.16   -1507908.6    136393.24   -1371515.4    4154575.5 
   21100        5.275    2383.7752    904084.56   -1499640.2    141295.09   -1358345.1    4144223.6 
   21200          5.3    2478.5525    915543.77   -1491882.6    146912.88   -1344969.8    4133871.8 
   21300        5.325      2553.95    926468.14   -1482607.4    151381.97   -1331225.5    4123519.9 
   21400         5.35    2638.3459    936264.36   -1473177.4    156384.42     -1316793    4113168.1 
   21500        5.375    2755.9188    946857.85   -1465078.5     163353.4   -1301725.1    4102816.3 
   21600          5.4    2892.4642    961318.41   -1457527.7    171446.94   -1286080.8    4092464.4 
   21700        5.425    3012.7792    974303.49   -1448589.6    178578.45   -1270011.2    4082112.6 
   21800         5.45    3174.8143    987076.94   -1441689.6    188182.87   -1253506.8    4071760.8 
   21900        5.475    3329.0577    998390.98   -1433834.2    197325.44   -1236508.7    4061408.9 
   22000          5.5    3493.5416    1010136.4   -1426444.6       207075   -1219369.6    4051057.1 
   22100        5.525    3662.5393    1025003.2   -1419429.5    217092.11   -1202337.4    4040705.2 
   22200         5.55    3841.7873    1038983.5   -1413182.3     227716.8   -1185465.5    4030353.4 
   22300        5.575    4023.6759    1052353.7   -1407112.2       238498   -1168614.2    4020001.6 
   22400          5.6    4205.7469    1065452.1   -1401257.4    249290.02   -1151967.4    4009649.7 
   22500        5.625    4390.6188    1077715.7   -1395719.6    260248.05   -1135471.5    3999297.9 
   22600         5.65    4564.1976    1090987.2   -1389704.9    270536.71   -1119168.2    3988946.1 
   22700        5.675    4733.3074      1104723   -1383779.1    280560.46   -1103218.6    3978594.2 
   22800          5.7     4898.997    1118750.9   -1378326.6    290381.49   -1087945.1    3968242.4 
   22900        5.725    5036.1309    1130947.5   -1372079.3    298509.92   -1073569.4    3957890.5 
   23000         5.75    5160.1469    1144352.9   -1365649.1     305860.8   -1059788.3    3947538.7 
   23100        5.775     5279.843    1154815.4   -1359393.5    312955.62   -1046437.8    3937186.9 
   23200          5.8    5394.0288    1167340.5   -1352809.6    319723.84   -1033085.7      3926835 
   23300        5.825    5507.7034    1178463.4   -1345829.6    326461.75   -1019367.9    3916483.2 
   23400         5.85    5618.1156      1190345   -1338387.5    333006.28   -1005381.3    3906131.4 
   23500        5.875    5720.3367    1203124.1   -1330496.5     339065.3   -991431.19    3895779.5 
   23600          5.9    5800.8511    1216637.7   -1321871.4    343837.68   -978033.77    3885427.7 
   23700        5.925    5849.0378    1229411.6   -1312128.7    346693.89   -965434.78    3875075.9 
   23800         5.95    5881.4493    1245401.3   -1302072.8    348615.04   -953457.73      3864724 
   23900        5.975    5894.8286    1263452.7   -1291191.3    349408.08   -941783.26    3854372.2 
   24000            6    5901.2729    1281447.4   -1279842.6    349790.05   -930052.57    3844020.3 
   24100        6.025    5897.4123    1300086.2   -1267934.4    349561.22   -918373.23    3833668.5 
   24200         6.05    5885.6432      1320459   -1255685.4    348863.62   -906821.77    3823316.7 
   24300        6.075    5867.7223    1341347.9   -1243531.1    347801.38    -895729.7    3812964.8 
   24400          6.1    5848.9324    1362101.2   -1231806.3    346687.64   -885118.71      3802613 
   24500        6.125    5838.1909    1380398.3   -1220778.8    346050.95   -874727.82    3792261.2 
   24600         6.15    5829.3463    1398071.5   -1209928.8     345526.7   -864402.07    3781909.3 
   24700        6.175     5814.654    1416780.1   -1198825.3    344655.83   -854169.51    3771557.5 
   24800          6.2    5820.3826    1435029.8   -1189286.6    344995.39    -844291.2    3761205.6 
   24900        6.225    5838.6075    1454202.5     -1180940    346075.65   -834864.39    3750853.8 
   25000         6.25    5856.0888    1472801.3   -1172906.1    347111.83   -825794.28      3740502 
   25100        6.275    5890.4144    1490149.2   -1166143.8    349146.43   -816997.41    3730150.1 
   25200          6.3    5927.0247    1504280.4   -1159646.7    351316.45   -808330.28    3719798.3 
   25300        6.325    5982.5737      1517007   -1154260.9    354609.05   -799651.88    3709446.5 
   25400         6.35    6043.3477    1529207.3   -1149390.4    358211.35   -791179.07    3699094.6 
   25500        6.375    6117.7839    1539435.9   -1145574.2    362623.45   -782950.79    3688742.8 
   25600          6.4    6208.3153    1546127.8   -1142684.7    367989.58   -774695.13    3678390.9 
   25700        6.425    6309.4373    1553672.3     -1140321    373983.45   -766337.52    3668039.1 
   25800         6.45    6421.8476    1558840.6     -1138612    380646.42   -757965.59    3657687.3 
   25900        6.475    6532.9718    1564413.3   -1136506.9    387233.16   -749273.72    3647335.4 
   26000          6.5    6650.1931    1569514.2   -1134416.1    394181.29   -740234.84    3636983.6 
   26100        6.525    6761.3207    1574050.9   -1131596.1    400768.23   -730827.82    3626631.8 
   26200         6.55    6869.4276    1578416.5   -1127903.6    407176.12    -720727.5    3616279.9 
   26300        6.575    6972.5837      1583901   -1123140.8    413290.56   -709850.23    3605928.1 
   26400          6.6    7078.9737    1587760.8   -1117750.3    419596.69   -698153.66    3595576.2 
   26500        6.625    7183.0267    1590353.6   -1111444.4    425764.29   -685680.12    3585224.4 
   26600         6.65    7291.7881    1596287.7   -1104708.7    432210.98   -672497.74    3574872.6 
   26700        6.675    7392.4751    1604810.5     -1096938    438179.06   -658758.96    3564520.7 
   26800          6.7     7479.555    1616409.1   -1087996.6    443340.61   -644656.02    3554168.9 
   26900        6.725    7554.5337    1631828.3     -1077968    447784.87   -630183.17    3543817.1 
   27000         6.75    7615.3228    1648695.3   -1066704.4    451388.06   -615316.32    3533465.2 
   27100        6.775    7666.3568    1667518.2     -1054577    454413.04      -600164    3523113.4 
   27200          6.8    7707.1173    1686626.5   -1041523.2    456829.06   -584694.11    3512761.5 
   27300        6.825    7743.4542    1707376.1   -1027923.2    458982.88   -568940.36    3502409.7 
   27400         6.85     7777.203    1730737.9   -1013811.5     460983.3   -552828.23    3492057.9 
   27500        6.875    7809.4528    1753792.5   -999440.32    462894.86   -536545.46      3481706 
   27600          6.9    7832.2328    1779400.8    -984250.4    464245.12   -520005.29    3471354.2 
   27700        6.925    7858.1709    1806868.6    -969240.7    465782.56   -503458.14    3461002.4 
   27800         6.95    7883.2385    1837075.6   -954033.54    467268.41   -486765.13    3450650.5 
   27900        6.975    7912.9204    1870666.7   -939025.81    469027.76   -469998.04    3440298.7 
   28000            7    7957.0367    1902752.5   -925109.98     471642.7   -453467.28    3429946.8 
   28100        7.025    8004.8868    1935332.2    -911613.7    474478.95   -437134.75      3419595 
   28200         7.05    8064.7447    1963949.7   -899183.93    478026.95   -421156.98    3409243.2 
   28300        7.075    8137.8345    1993418.1   -887836.93    482359.25   -405477.69    3398891.3 
   28400          7.1    8215.4563    2025584.5   -877064.83    486960.17   -390104.65    3388539.5 
   28500        7.125    8295.6108    2055654.6   -866598.98    491711.23   -374887.76    3378187.7 
   28600         7.15    8387.3488    2087496.2   -857055.66    497148.87   -359906.79    3367835.8 
   28700        7.175    8482.6869    2117710.3   -847827.74    502799.91   -345027.83      3357484 
   28800          7.2    8580.2258    2147680.8   -838817.55     508581.4   -330236.15    3347132.2 
   28900        7.225    8675.7635    2174285.7   -829933.13    514244.27   -315688.87    3336780.3 
   29000         7.25    8772.4106      2199001   -821265.27     519972.9   -301292.37    3326428.5 
   29100        7.275    8846.4903    2224220.3   -811481.01    524363.87   -287117.14    3316076.6 
   29200          7.3    8893.2145    2247359.1   -800354.84    527133.39   -273221.45    3305724.8 
   29300        7.325    8908.7357    2274190.8   -788004.57    528053.38   -259951.19      3295373 
   29400         7.35     8879.623    2301664.4   -773393.13    526327.77   -247065.36    3285021.1 
   29500        7.375    8824.8885      2330840   -757842.05    523083.45    -234758.6    3274669.3 
   29600          7.4    8726.9447    2361160.2    -740262.7    517277.96   -222984.74    3264317.5 
   29700        7.425     8609.949    2395305.6   -721817.35     510343.2   -211474.15    3253965.6 
   29800         7.45    8473.7961    2428358.7      -702749    502272.92   -200476.09    3243613.8 
   29900        7.475    8305.1313    2464198.8   -682172.94    492275.54    -189897.4    3233261.9 
   30000          7.5    8134.4687    2501768.2   -661976.37    482159.74   -179816.63    3222910.1 
   30100        7.525    7944.7604    2539057.9    -640954.5    470915.04   -170039.46    3212558.3 
   30200         7.55    7737.7572    2576613.6   -619388.22     458645.2   -160743.02    3202206.4 
   30300        7.575    7536.9656    2612993.1   -598476.93    446743.55   -151733.39    3191854.6 
   30400          7.6    7335.6521    2647647.8   -578011.34    434810.96   -143200.38    3181502.8 
   30500        7.625    7138.2197    2681028.2   -557984.24    423108.42   -134875.82    3171150.9 
   30600         7.65    6967.8163    2711175.1      -539997    413007.98   -126989.02    3160799.1 
   30700        7.675    6807.6212    2737776.4   -522853.43    403512.63    -119340.8    3150447.2 
   30800          7.7    6665.1517    2763219.1   -507118.58    395067.95   -112050.63    3140095.4 
   30900        7.725    6524.1778    2787987.8   -491564.89     386711.9   -104852.99    3129743.6 
   31000         7.75    6403.4627    2808253.5   -477631.45    379556.68   -98074.772    3119391.7 
   31100        7.775    6264.4347    2826296.6   -462890.33    371315.98   -91574.344    3109039.9 
   31200          7.8    6147.0919    2845019.3   -449477.59    364360.65   -85116.939    3098688.1 
   31300        7.825    6015.1615    2860610.3   -435519.34    356540.65   -78978.694    3088336.2 
   31400         7.85    5871.5855    2874601.6   -420959.05    348030.37   -72928.685    3077984.4 
   31500        7.875    5731.9177    2888609.5    -406784.7    339751.75   -67032.951    3067632.5 
   31600          7.9    5561.3071    2900912.8   -390688.76    329639.03   -61049.726    3057280.7 
   31700        7.925    5377.4826    2916527.8   -373834.49    318743.08    -55091.41    3046928.9 
   31800         7.95    5177.1135      2930274   -355646.99    306866.47   -48780.516      3036577 
   31900        7.975    4973.3937    2947775.7   -336658.17    294791.25   -41866.918    3026225.2 
   32000            8    4781.1615    2965995.8   -317173.17    283396.95   -33776.215    3015873.4 
   32100        8.025    4597.1745    2985663.4   -296245.08    272491.37    -23753.71    3005521.5 
   32200         8.05    4445.5586    3006751.1      -275388    263504.53   -11883.468    2995169.7 
   32300        8.075    4332.5815      3030889   -255737.04    256807.97    1070.9338    2984817.8 
   32400          8.1     4224.837    3056762.2    -236163.7    250421.56    14257.858      2974466 
   32500        8.125    4144.5789    3083743.1   -218234.76    245664.37    27429.605    2964114.2 
   32600         8.15    4095.0198    3114347.3   -201828.29    242726.82    40898.531    2953762.3 
   32700        8.175    4082.4154    3146732.5   -187046.62    241979.71    54933.084    2943410.5 
   32800          8.2    4094.7465      3178669   -173366.51    242710.62    69344.109    2933058.7 
   32900        8.225     4150.427    3211447.9   -161793.75    246011.01    84217.252    2922706.8 
   33000         8.25    4237.4246      3242997   -151445.13    251167.67     99722.54      2912355 
   33100        8.275    4341.0491    3278916.1   -141185.42    257309.88    116124.45    2902003.2 
   33200          8.3     4492.345    3311754.7   -132649.28    266277.74    133628.46    2891651.3 
   33300        8.325    4630.7732    3351947.9   -122877.11    274482.88    151605.77    2881299.5 
   33400         8.35    4756.7133    3391894.9   -111912.85    281947.81    170034.96    2870947.6 
   33500        8.375    4864.1361    3432057.1    -99243.99    288315.16    189071.17    2860595.8 
   33600          8.4    4929.8684      3480466   -83742.019    292211.35    208469.33      2850244 
   33700        8.425    4952.5785    3526605.9   -65283.745    293557.46    228273.72    2839892.1 
   33800         8.45    4962.2877    3574280.9   -45821.409    294132.96    248311.55    2829540.3 
   33900        8.475    4933.1815    3621987.1   -23563.136    292407.73    268844.59    2819188.5 
   34000          8.5    4902.4354    3672373.1   -503.24607    290585.29    290082.05    2808836.6 
   34100        8.525    4871.3361    3721303.3    23042.301    288741.93    311784.23    2798484.8 
   34200         8.55    4835.6124    3773281.7    47982.526    286624.45    334606.98    2788132.9 
   34300        8.575    4822.8868    3819332.4      72504.5    285870.16    358374.66    2777781.1 
   34400          8.6    4833.1152    3870681.6    97410.206    286476.43    383886.64    2767429.3 
   34500        8.625     4853.833    3920403.4    123299.36    287704.45    411003.81    2757077.4 
   34600         8.65    4921.6206    3973139.6    148792.37    291722.47    440514.84    2746725.6 
   34700        8.675    5008.5962    4022685.6    175473.39    296877.83    472351.22    2736373.8 
   34800          8.7    5155.5393    4077102.9    201553.12    305587.69    507140.81    2726021.9 
   34900        8.725    5328.4011    4124260.1    228566.81    315833.84    544400.65    2715670.1 
   35000         8.75    5547.0706      4178730       254822    328795.19    583617.19    2705318.2 
   35100        8.775    5770.1641    4234079.3    281713.29    342018.75    623732.05    2694966.4 
   35200          8.8    6002.8202    4291280.7    309000.46    355809.13     664809.6    2684614.6 
   35300        8.825    6270.8349    4344449.1    334935.77    371695.35    706631.11    2674262.7 
   35400         8.85    6518.3679    4402927.9    362820.29    386367.53    749187.82    2663910.9 
   35500        8.875    6758.1699    4452369.2     391081.6    400581.48    791663.08    2653559.1 
   35600          8.9    6986.3397    4506923.1    420525.89    414105.94    834631.82    2643207.2 
   35700        8.925    7205.6798    4560466.3    450295.19    427107.03    877402.22    2632855.4 
   35800         8.95    7405.2577    4614094.2    481400.97    438936.74    920337.71    2622503.5 
   35900        8.975    7613.0832      4671281    512855.67    451255.32    964110.99    2612151.7 
   36000            9    7793.9058    4730723.5     546293.5    461973.33    1008266.8    2601799.9 
   36100        9.025    7982.9248    4793527.5    579277.66    473177.18    1052454.8      2591448 
   36200         9.05    8136.4503    4862623.1    614150.83     482277.2      1096428    2581096.2 
   36300        9.075    8307.2096    4934861.2    647910.52    492398.73    1140309.2    2570744.4 
   36400          9.1     8434.816    5013961.1    683454.66    499962.42    1183417.1    2560392.5 
   36500        9.125    8544.3343    5092366.6    719180.03    506453.98      1225634    2550040.7 
   36600         9.15    8684.5267    5175146.1    752351.21    514763.69    1267114.9    2539688.8 
   36700        9.175    8767.9951    5255817.9    787948.76    519711.17    1307659.9      2529337 
   36800          9.2    8898.9997      5339095    820081.68     527476.3      1347558    2518985.2 
   36900        9.225    9016.1616    5420356.8    853024.33    534420.91    1387445.2    2508633.3 
   37000         9.25    9184.3025    5500207.2    882485.81    544387.24    1426873.1    2498281.5 
   37100        9.275    9364.3313    5582884.5    911193.37     555058.2    1466251.6    2487929.7 
   37200          9.3    9591.5082    5663303.1     937201.7    568523.81    1505725.5    2477577.8 
   37300        9.325    9838.7623    5746908.1    962838.91    583179.46    1546018.4      2467226 
   37400         9.35    10132.215    5835052.2    985982.39    600573.46    1586555.8    2456874.2 
   37500        9.375    10419.909    5934043.6    1010391.6    617626.14    1628017.7    2446522.3 
   37600          9.4    10740.816    6032504.6    1033441.4    636647.49    1670088.9    2436170.5 
   37700        9.425    11065.243    6138960.1    1057521.6    655877.48    1713399.1    2425818.6 
   37800         9.45    11393.821    6241771.6      1082727    675353.49    1758080.5    2415466.8 
   37900        9.475    11700.867    6353190.8    1109624.3    693553.25    1803177.5      2405115 
   38000          9.5    11958.521    6473280.2    1140548.5    708825.32    1849373.8    2394763.1 
   38100        9.525    12187.304    6606968.8    1174049.7    722386.11    1896435.8    2384411.3 
   38200         9.55    12365.609    6749937.1    1211188.7    732954.93    1944143.7    2374059.5 
   38300        9.575    12501.172    6899757.2    1251723.1    740990.24    1992713.3    2363707.6 
   38400          9.6     12594.26    7050803.3    1295563.7    746507.93    2042071.6    2353355.8 
   38500        9.625    12627.512    7193810.1    1343724.6    748478.89    2092203.5    2343003.9 
   38600         9.65    12666.127    7330406.9    1391642.6     750767.7    2142410.3    2332652.1 
   38700        9.675    12663.334    7462918.1    1441915.5    750602.16    2192517.6    2322300.3 
   38800          9.7    12664.767    7595832.1    1491308.3    750687.12    2241995.4    2311948.4 
   38900        9.725    12671.643    7718552.5    1539765.5    751094.66    2290860.1    2301596.6 
   39000         9.75    12667.188    7846253.4      1587926    750830.59    2338756.6    2291244.8 
   39100        9.775    12646.077    7963269.3    1636191.8    749579.26    2385771.1    2280892.9 
   39200          9.8    12627.653    8071778.1    1683344.8     748487.2      2431832    2270541.1 
   39300        9.825    12541.651    8185422.7    1733383.9    743389.55    2476773.5    2260189.2 
   39400         9.85    12399.829    8297890.1    1785458.9    734983.28    2520442.1    2249837.4 
   39500        9.875    12182.067    8411895.6    1840809.8     722075.7    2562885.5    2239485.6 
   39600          9.9    11916.537    8527468.9    1898136.7    706336.75    2604473.5    2229133.7 
   39700        9.925    11599.987    8646856.8    1957175.4     687573.7    2644749.1    2218781.9 
   39800         9.95     11257.25    8772685.8    2017245.9    667258.43    2684504.3    2208430.1 
   39900        9.975    10914.966    8906318.5    2076325.2    646969.99    2723295.2    2198078.2 
   40000           10    10591.684    9034319.7    2133167.5    627807.87    2760975.4    2187726.4 
   40100       10.025    10274.262    9181229.7    2188829.6    608993.11    2797822.7    2177374.5 
   40200        10.05    9978.9983    9322336.8    2242560.3    591491.77    2834052.1    2167022.7 
   40300       10.075    9681.1491    9476963.2    2295718.7    573837.15    2869555.8    2156670.9 
   40400         10.1    9398.8233    9638545.7    2347627.1    557102.67    2904729.8      2146319 
   40500       10.125    9116.9082    9796331.4    2399501.1    540392.53    2939893.6    2135967.2 
   40600        10.15    8907.1059      9948917    2448055.8    527956.78    2976012.6    2125615.4 
   40700       10.175     8702.244     10101251    2498160.3    515813.86    3013974.1    2115263.5 
   40800         10.2    8620.6761     10251732    2544485.6    510979.04    3055464.7    2104911.7 
   40900       10.225    8583.7208     10379408    2593741.2    508788.56    3102529.8    2094559.8 
   41000        10.25     8623.602     10523005    2645578.7    511152.46    3156731.1      2084208 
   41100       10.275    8700.2497     10683326    2704301.8    515695.66    3219997.4    2073856.2 
   41200         10.3    8809.6032     10850593    2772152.6    522177.44      3294330    2063504.3 
   41300       10.325    8946.1281     11036086    2847564.3    530269.77    3377834.1    2053152.5 
   41400        10.35    9100.3339     11231955      2928440    539410.11    3467850.1    2042800.7 
   41500       10.375    9302.7646     11439742    3013877.7    551408.92    3565286.6    2032448.8 
   41600         10.4    9608.4219     11647248    3099266.6    569526.35    3668792.9      2022097 
   41700       10.425    10068.628     11851046    3179280.3    596804.45    3776084.7    2011745.1 
   41800        10.45     10636.92     12058199      3255694    630489.18    3886183.2    2001393.3 
   41900       10.475    11279.819     12273340    3328753.8    668596.18      3997350    1991041.5 
   42000         10.5    11887.736     12485734    3402547.3    704629.62      4107177    1980689.6 
   42100       10.525    12315.949     12722216    3483651.3    730011.37    4213662.7    1970337.8 
   42200        10.55    12546.645     12967732    3572455.3    743685.61    4316140.9      1959986 
   42300       10.575    12599.994     13220890    3666694.9    746847.76    4413542.6    1949634.1 
   42400         10.6    12565.923     13453965    3761934.5    744828.24    4506762.8    1939282.3 
   42500       10.625    12540.402     13705136      3853842    743315.55    4597157.6    1928930.5 
   42600        10.65    12649.947     13918052    3936904.8    749808.69    4686713.5    1918578.6 
   42700       10.675    12884.437     14131221    4013418.2    763707.74      4777126    1908226.8 
   42800         10.7    13195.069     14368203      4089480    782120.07      4871600    1897874.9 
   42900       10.725    13591.106     14601445    4166329.8    805594.63    4971924.4    1887523.1 
   43000        10.75    13964.674     14860870    4250697.3    827737.37    5078434.7    1877171.3 
   43100       10.775    14403.527     15148594    4337513.4    853749.81    5191263.2    1866819.4 
   43200         10.8    14943.517     15463702    4422582.1    885756.98    5308339.1    1856467.6 
