LAMMPS (29 Sep 2021)
  using 1 OpenMP thread(s) per MPI task
Reading data file ...
  orthogonal box = (-0.045790668 -0.21301866 0.0000000) to (101.84486 101.51208 615.91251)
  3 by 2 by 16 MPI processor grid
  reading atoms ...
  520712 atoms
  reading velocities ...
  520712 velocities
  read_data CPU = 1.309 seconds
281426 atoms in group g_left
239286 atoms in group g_right

CITE-CITE-CITE-CITE-CITE-CITE-CITE-CITE-CITE-CITE-CITE-CITE-CITE

Your simulation uses code contributions which should be cited:
- @article{cjiang2012
The log file lists these citations in BibTeX format.

CITE-CITE-CITE-CITE-CITE-CITE-CITE-CITE-CITE-CITE-CITE-CITE-CITE

Neighbor list info ...
  update every 1 steps, delay 10 steps, check yes
  max neighbors/atom: 2000, page size: 100000
  master list distance cutoff = 8.28721
  ghost atom cutoff = 8.28721
  binsize = 4.143605, bins = 25 25 149
  3 neighbor lists, perpetual/occasional/extra = 3 0 0
  (1) pair eam/alloy, perpetual, skip from (3)
      attributes: half, newton on
      pair build: skip
      stencil: none
      bin: none
  (2) pair edip/multi, perpetual
      attributes: full, newton on
      pair build: full/bin/atomonly
      stencil: full/bin/3d
      bin: standard
  (3) neighbor class addition, perpetual, half/full from (2)
      attributes: half, newton on
      pair build: halffull/newton
      stencil: none
      bin: none
Setting up Verlet run ...
  Unit style    : metal
  Current step  : 0
  Time step     : 0.00025
Per MPI rank memory allocation (min/avg/max) = 6.962 | 14.52 | 18.96 Mbytes
Step Time Temp Press PotEng KinEng TotEng Volume 
       0            0    17507.416    194011.52   -2461490.2    1178374.8   -1283115.4    6383832.5 
     100        0.025     17505.54    194501.88   -2461484.2    1178248.5   -1283235.6    6368285.2 
     200         0.05    17506.232    195021.02   -2461504.5    1178295.1   -1283209.4      6352738 
     300        0.075    17506.735    195096.77   -2461467.1    1178328.9   -1283138.2    6337190.7 
     400          0.1    17506.707    196070.31   -2461490.4    1178327.1   -1283163.3    6321643.5 
     500        0.125    17506.544    195978.31   -2461516.4    1178316.1   -1283200.3    6306096.2 
     600         0.15     17506.47    196865.47   -2461492.3    1178311.1   -1283181.2    6290548.9 
     700        0.175    17506.401    197355.59   -2461470.6    1178306.5   -1283164.1    6275001.7 
     800          0.2     17506.41    197810.06   -2461494.8    1178307.1   -1283187.7    6259454.4 
     900        0.225    17505.692    198159.93   -2461458.7    1178258.8     -1283200    6243907.2 
    1000         0.25     17506.78    198560.19   -2461518.8      1178332   -1283186.8    6228359.9 
    1100        0.275    17506.191    199049.02   -2461486.2    1178292.4   -1283193.9    6212812.7 
    1200          0.3    17505.708    199563.54   -2461475.4    1178259.8   -1283215.5    6197265.4 
    1300        0.325    17505.977    200014.76     -2461498      1178278     -1283220    6181718.2 
    1400         0.35    17505.558    200514.69   -2461470.9    1178249.7   -1283221.2    6166170.9 
    1500        0.375    17505.678    201027.54   -2461506.8    1178257.8     -1283249    6150623.7 
    1600          0.4    17505.323    201197.45     -2461506    1178233.9   -1283272.1    6135076.4 
    1700        0.425    17505.031    201794.78   -2461485.7    1178214.3   -1283271.4    6119529.1 
    1800         0.45    17505.174    202574.18   -2461505.2    1178223.9   -1283281.3    6103981.9 
    1900        0.475    17506.634    203195.62     -2461607    1178322.1   -1283284.8    6088434.6 
    2000          0.5    17497.042    206898.92   -2460960.5    1177676.5     -1283284    6072887.4 
    2100        0.525    17425.728    220461.98   -2456167.9    1172876.6   -1283291.3    6057340.1 
    2200         0.55    17306.894    239966.33   -2448168.7    1164878.2   -1283290.5    6041792.9 
    2300        0.575     17180.41     258381.4   -2439641.8    1156364.9   -1283276.9    6026245.6 
    2400          0.6    17056.817    274815.95   -2431313.4    1148046.3   -1283267.2    6010698.4 
    2500        0.625    16935.403    290108.27   -2423138.8    1139874.2   -1283264.6    5995151.1 
    2600         0.65    16816.406    303853.03     -2415130    1131864.9   -1283265.1    5979603.8 
    2700        0.675    16687.463    319408.14   -2406456.9      1123186   -1283270.9    5964056.6 
    2800          0.7    16562.616    329991.57   -2398051.1      1114783   -1283268.1    5948509.3 
    2900        0.725    16437.014    343669.07   -2389602.5    1106329.1   -1283273.4    5932962.1 
    3000         0.75    16298.644    357046.55   -2380331.1    1097015.8   -1283315.3    5917414.8 
    3100        0.775    16147.724    370610.16   -2370204.9    1086857.8   -1283347.1    5901867.6 
    3200          0.8    16008.404    380628.49   -2360799.4    1077480.5   -1283318.9    5886320.3 
    3300        0.825    15871.579    390315.19   -2351554.7    1068271.2   -1283283.5    5870773.1 
    3400         0.85    15745.139    401019.13   -2343058.7    1059760.9   -1283297.8    5855225.8 
    3500        0.875    15614.671    408656.53   -2334300.7    1050979.5   -1283321.3    5839678.6 
    3600          0.9    15490.332    415457.05     -2325920    1042610.5   -1283309.5    5824131.3 
    3700        0.925    15366.663    423531.95   -2317604.4    1034286.8   -1283317.7      5808584 
    3800         0.95    15251.046    430853.77     -2309866    1026504.9   -1283361.1    5793036.8 
    3900        0.975     15138.03    436611.99   -2302272.1    1018898.1     -1283374    5777489.5 
    4000            1    15031.533    442572.58     -2295093    1011730.1     -1283363    5761942.3 
    4100        1.025    14930.908    446722.75   -2288347.7    1004957.3   -1283390.4      5746395 
    4200         1.05    14829.852    453757.86   -2281580.8    998155.48   -1283425.3    5730847.8 
    4300        1.075    14735.974    460416.79   -2275248.3    991836.81   -1283411.4    5715300.5 
    4400          1.1    14644.592    464346.33   -2269069.2    985686.15   -1283383.1    5699753.3 
    4500        1.125      14553.3    468988.35   -2262962.7    979541.57   -1283421.1      5684206 
    4600         1.15    14474.379     472574.5   -2257685.3    974229.61   -1283455.7    5668658.8 
    4700        1.175    14384.905    476807.09   -2251637.8    968207.38   -1283430.5    5653111.5 
    4800          1.2    14298.833    480170.78   -2245825.5    962414.11   -1283411.4    5637564.2 
    4900        1.225    14208.693    484955.33     -2239770    956347.07   -1283422.9      5622017 
    5000         1.25    14113.037     489475.5     -2233340    949908.68   -1283431.3    5606469.7 
    5100        1.275    14020.338    494290.26   -2227099.8    943669.39   -1283430.4    5590922.5 
    5200          1.3    13910.492    499539.56   -2219721.9    936275.99   -1283445.9    5575375.2 
    5300        1.325    13806.708    504215.81   -2212763.9    929290.55   -1283473.3      5559828 
    5400         1.35    13695.432    511997.92   -2205275.5    921800.91   -1283474.6    5544280.7 
    5500        1.375    13588.115    517681.49   -2198046.3    914577.66   -1283468.6    5528733.5 
    5600          1.4    13560.582    520788.58   -2196203.9    912724.51   -1283479.4    5513186.2 
    5700        1.425    13521.056    523048.09     -2193555    910064.13   -1283490.9    5497638.9 
    5800         1.45    13474.908    522453.34   -2190433.4    906958.06   -1283475.3    5482091.7 
    5900        1.475    13434.503    527733.18   -2187699.2    904238.53   -1283460.7    5466544.4 
    6000          1.5    13378.915    530122.22   -2183960.6    900497.02   -1283463.6    5450997.2 
    6100        1.525     13324.73    534334.86     -2180333    896849.97     -1283483    5435449.9 
    6200         1.55    13263.423    538113.18   -2176233.5    892723.59   -1283509.9    5419902.7 
    6300        1.575    13199.361    543037.46   -2171939.7    888411.78     -1283528    5404355.4 
    6400          1.6    13129.081    546585.88   -2167200.1    883681.43   -1283518.7    5388808.2 
    6500        1.625    13053.262    551971.96   -2162069.1    878578.28   -1283490.8    5373260.9 
    6600         1.65    12974.462    557545.97   -2156768.9    873274.44   -1283494.4    5357713.7 
    6700        1.675    12865.106    568466.73   -2149440.3    865914.01   -1283526.3    5342166.4 
    6800          1.7    12736.999    578064.51     -2140827    857291.44   -1283535.6    5326619.1 
    6900        1.725    12575.284    586777.76   -2129918.8     846406.9   -1283511.9    5311071.9 
    7000         1.75    12441.241    601065.51   -2120879.4    837384.84   -1283494.6    5295524.6 
    7100        1.775    12293.894    612802.47   -2110975.7    827467.33   -1283508.4    5279977.4 
    7200          1.8    12145.081    624706.04   -2100977.7    817451.15   -1283526.5    5264430.1 
    7300        1.825    12002.526    638336.08   -2091394.7     807856.2   -1283538.5    5248882.9 
    7400         1.85    11856.708    651058.63   -2081608.6    798041.55   -1283567.1    5233335.6 
    7500        1.875    11713.703    663384.65   -2072008.1    788416.28   -1283591.8    5217788.4 
    7600          1.9    11572.636    675442.64   -2062517.8    778921.48   -1283596.3    5202241.1 
    7700        1.925    11442.612    686291.37   -2053760.1    770169.91   -1283590.2    5186693.9 
    7800         1.95    11316.227    696955.63   -2045268.1    761663.29   -1283604.8    5171146.6 
    7900        1.975    11188.333    705978.94   -2036687.5    753055.12   -1283632.4    5155599.3 
    8000            2    11064.511    715783.65   -2028364.5    744721.02   -1283643.5    5140052.1 
    8100        2.025     10946.62    725459.77   -2020427.9    736786.13   -1283641.8    5124504.8 
    8200         2.05    10846.491    734567.23   -2013674.8    730046.71   -1283628.1    5108957.6 
    8300        2.075     10799.11    739014.88   -2010480.6    726857.61     -1283623    5093410.3 
    8400          2.1    10735.467    742116.11   -2006190.1       722574   -1283616.1    5077863.1 
    8500        2.125    10685.495    742584.03   -2002804.3     719210.5   -1283593.8    5062315.8 
    8600         2.15    10640.707    748253.43   -1999780.6    716195.98   -1283584.6    5046768.6 
    8700        2.175    10578.823    750680.39   -1995636.9    712030.76   -1283606.2    5031221.3 
    8800          2.2     10540.43    755697.71     -1993071    709446.63   -1283624.3      5015674 
    8900        2.225    10493.987    759080.25   -1989918.4    706320.68   -1283597.7    5000126.8 
    9000         2.25    10432.395    760112.44   -1985736.5    702175.09   -1283561.4    4984579.5 
    9100        2.275    10389.597    764739.18     -1982869    699294.44   -1283574.6    4969032.3 
    9200          2.3    10324.474    769490.91   -1978520.3    694911.22   -1283609.1      4953485 
    9300        2.325    10273.625    771677.67   -1975103.7    691488.72     -1283615    4937937.8 
    9400         2.35    10185.052    776268.79   -1969121.2    685527.11   -1283594.1    4922390.5 
    9500        2.375    10089.554    785522.46   -1962674.6    679099.42   -1283575.2    4906843.3 
    9600          2.4    10005.962    789044.45   -1957074.1    673473.05     -1283601      4891296 
    9700        2.425     9978.956     793101.8   -1955292.1    671655.38   -1283636.7    4875748.8 
    9800         2.45    9854.4311    801481.25   -1946909.4    663273.96   -1283635.5    4860201.5 
    9900        2.475    9777.6761    805348.76   -1941730.4     658107.8   -1283622.6    4844654.2 
   10000          2.5      9732.42    813051.73   -1938693.4    655061.74   -1283631.7      4829107 
   10100        2.525    9674.4362    824636.54   -1934801.7    651159.01   -1283642.7    4813559.7 
   10200         2.55    9587.2495    836141.46     -1928936    645290.72   -1283645.3    4798012.5 
   10300        2.575    9502.7938     847234.9   -1923249.2    639606.25   -1283642.9    4782465.2 
   10400          2.6    9413.6387    858776.85   -1917238.1    633605.47   -1283632.6      4766918 
   10500        2.625    9314.1918    873726.93   -1910527.9    626911.98     -1283616    4751370.7 
   10600         2.65    9221.4259    886154.87   -1904285.4    620668.16   -1283617.2    4735823.5 
   10700        2.675    9111.2405    901822.94   -1896912.9     613251.9     -1283661    4720276.2 
   10800          2.7     8964.792    917889.11   -1887099.8    603394.86   -1283704.9      4704729 
   10900        2.725    8855.4664    933821.06   -1879754.9    596036.47   -1283718.4    4689181.7 
   11000         2.75    8666.8095    947531.18   -1867066.5     583338.5     -1283728    4673634.4 
   11100        2.775    8570.3693    960332.23   -1860590.4    576847.39     -1283743    4658087.2 
   11200          2.8    8420.7615    972749.58   -1850528.3     566777.7   -1283750.6    4642539.9 
   11300        2.825    8287.3364    987941.89   -1841541.4    557797.24   -1283744.2    4626992.7 
   11400         2.85    8158.2599    999402.13   -1832843.8    549109.46   -1283734.4    4611445.4 
   11500        2.875    8036.9253    1011067.7   -1824689.5    540942.77   -1283746.8    4595898.2 
   11600          2.9    7930.7822    1018550.5   -1817555.5    533798.58   -1283756.9    4580350.9 
   11700        2.925    7829.2922    1026417.4     -1810724    526967.57   -1283756.5    4564803.7 
   11800         2.95    7722.9432    1039805.3   -1803562.9    519809.52   -1283753.3    4549256.4 
   11900        2.975    7628.9739      1047586   -1797235.7    513484.71     -1283751    4533709.1 
   12000            3    7545.8385    1056380.7   -1791632.7    507889.11   -1283743.6    4518161.9 
   12100        3.025    7465.5928    1062571.2   -1786220.9    502487.99   -1283732.9    4502614.6 
   12200         3.05    7377.1341    1072511.3   -1780272.8    496534.09   -1283738.7    4487067.4 
   12300        3.075    7305.4099    1080381.2     -1775450    491706.53   -1283743.5    4471520.1 
   12400          3.1    7216.9351    1092267.2   -1769486.8    485751.54   -1283735.3    4455972.9 
   12500        3.125    7171.4477    1095135.1   -1766416.6    482689.91   -1283726.7    4440425.6 
   12600         3.15    7149.3769    1098464.4   -1764934.5     481204.4   -1283730.1    4424878.4 
   12700        3.175    7083.3142    1100705.8   -1760468.7     476757.9   -1283710.8    4409331.1 
   12800          3.2    7028.4756    1103951.2   -1756742.5    473066.86   -1283675.7    4393783.9 
   12900        3.225    6995.2992    1113579.4   -1754499.2    470833.86   -1283665.4    4378236.6 
   13000         3.25    6912.6755    1118952.2   -1748965.9    465272.69   -1283693.2    4362689.3 
   13100        3.275    6855.3418    1124641.1   -1745110.6    461413.72   -1283696.9    4347142.1 
   13200          3.3    6776.4815    1134968.6   -1739769.5    456105.86   -1283663.7    4331594.8 
   13300        3.325    6690.8718    1147543.5   -1733982.4    450343.71   -1283638.7    4316047.6 
   13400         3.35    6615.2637    1157007.4     -1728900    445254.74   -1283645.3    4300500.3 
   13500        3.375    6507.0499    1169928.9   -1721644.4    437971.18   -1283673.2    4284953.1 
   13600          3.4    6414.2758      1182514   -1715393.5    431726.81   -1283666.7    4269405.8 
   13700        3.425    6289.0271    1198421.5   -1706923.8    423296.67   -1283627.1    4253858.6 
   13800         3.45     6161.575    1214436.2   -1698317.3    414718.23     -1283599    4238311.3 
   13900        3.475    6003.3829    1227411.2   -1687669.1    404070.77   -1283598.3    4222764.1 
   14000          3.5     5896.574    1244889.1   -1680484.9    396881.77   -1283603.2    4207216.8 
   14100        3.525    5792.4128    1258827.4     -1673469    389870.97   -1283598.1    4191669.5 
   14200         3.55    5654.6515    1268448.2   -1664188.1    380598.64   -1283589.5    4176122.3 
   14300        3.575     5528.581    1280439.2   -1655696.5    372113.19   -1283583.3      4160575 
   14400          3.6    5416.4988    1296781.5   -1648140.6    364569.26   -1283571.3    4145027.8 
   14500        3.625    5283.6399    1315463.4   -1639173.7     355626.9   -1283546.8    4129480.5 
   14600         3.65    5168.1728    1332335.4   -1631384.1    347855.13     -1283529    4113933.3 
   14700        3.675      5058.53      1344164   -1623999.6    340475.39   -1283524.2      4098386 
   14800          3.7    4912.7515    1362006.7   -1614183.8    330663.45   -1283520.3    4082838.8 
   14900        3.725    4829.3893    1373026.1   -1608583.2    325052.57   -1283530.6    4067291.5 
   15000         3.75    4726.6101    1386607.1   -1601629.9    318134.79   -1283495.1    4051744.2 
   15100        3.775    4655.4207    1398602.8   -1596865.7    313343.24   -1283522.4      4036197 
   15200          3.8    4635.9987    1410738.5   -1592443.1       312036   -1280407.1    4020649.7 
   15300        3.825     4810.715    1425770.2   -1586522.1    323795.66   -1262726.4    4005102.5 
   15400         3.85     4846.497      1441967   -1582460.6    326204.05   -1256256.5    3989555.2 
   15500        3.875    4987.4402    1454532.9   -1578437.9    335690.53   -1242747.4      3974008 
   15600          3.9    5131.0638    1472192.3   -1575626.5    345357.43   -1230269.1    3958460.7 
   15700        3.925    5219.8496    1483251.5   -1573485.9    351333.35   -1222152.5    3942913.5 
   15800         3.95    5366.5653    1492438.8   -1569941.2    361208.37   -1208732.8    3927366.2 
   15900        3.975    5533.8028    1510662.5   -1567572.9    372464.66   -1195108.3      3911819 
   16000            4    5641.0076    1523345.9   -1563783.8    379680.31   -1184103.5    3896271.7 
   16100        4.025    5590.0496    1544570.6   -1548599.5    376250.47   -1172349.1    3880724.4 
   16200         4.05    5534.5315    1566706.2   -1530863.9     372513.7   -1158350.2    3865177.2 
   16300        4.075    5501.2102    1592270.1   -1514409.5    370270.94   -1144138.6    3849629.9 
   16400          4.1    5405.9579    1618818.1   -1493893.2    363859.78   -1130033.4    3834082.7 
   16500        4.125    5379.5386    1643358.9   -1474357.9    362081.57   -1112276.3    3818535.4 
   16600         4.15    5353.9644    1673304.4   -1452119.1    360360.24   -1091758.9    3802988.2 
   16700        4.175    5348.9645    1704178.8   -1427021.8    360023.71   -1066998.1    3787440.9 
   16800          4.2    5475.5925    1737834.2   -1401200.9    368546.68   -1032654.2    3771893.7 
   16900        4.225    5702.5093    1780968.5   -1372515.8    383819.82   -988695.97    3756346.4 
   17000         4.25    5855.1598    1825976.8   -1341086.7    394094.29   -946992.43    3740799.2 
   17100        4.275    6069.8165    1872645.8   -1308789.2    408542.23   -900246.93    3725251.9 
   17200          4.3    6367.3428    1926792.4   -1275809.2    428567.88   -847241.37    3709704.6 
   17300        4.325    6660.6164    1980770.5   -1242677.6     448307.3   -794370.26    3694157.4 
   17400         4.35    6985.7074    2033344.3   -1210285.6    470188.26   -740097.33    3678610.1 
   17500        4.375    7313.7712    2082963.2   -1177575.5    492269.31   -685306.24    3663062.9 
   17600          4.4    7640.8407    2137713.2   -1144584.8    514283.44   -630301.35    3647515.6 
   17700        4.425    7986.4698    2191029.3   -1111415.2    537546.75   -573868.48    3631968.4 
   17800         4.45     8358.915    2249209.8   -1079489.9    562614.99   -516874.91    3616421.1 
   17900        4.475    8726.9557    2304580.4   -1047161.6    587386.77   -459774.81    3600873.9 
   18000          4.5    9110.9372    2358744.1   -1015675.5    613231.49   -402444.02    3585326.6 
   18100        4.525     9502.939    2414443.9   -984628.45    639616.02   -345012.42    3569779.3 
   18200         4.55    9871.1915      2465905   -953318.09    664402.06   -288916.03    3554232.1 
   18300        4.575    10262.993    2519736.8   -923439.13    690773.11   -232666.02    3538684.8 
   18400          4.6    10674.587    2570555.6   -895385.37    718476.36   -176909.01    3523137.6 
   18500        4.625    11115.907    2620613.7   -870587.54    748180.37   -122407.17    3507590.3 
   18600         4.65    11558.113    2662573.5   -847359.81    777943.99   -69415.821    3492043.1 
   18700        4.675    11980.831    2701267.8   -824359.41    806395.93   -17963.478    3476495.8 
   18800          4.7    12373.047    2745543.2   -801182.14    832794.91    31612.763    3460948.6 
   18900        4.725    12732.242    2791093.8   -777549.02    856971.29    79422.265    3445401.3 
   19000         4.75    13068.422    2838896.2   -753299.39    879598.64    126299.25    3429854.1 
   19100        4.775    13392.482    2880256.7   -728742.71    901410.21     172667.5    3414306.8 
   19200          4.8    13720.201    2926952.5   -703845.68    923468.01    219622.33    3398759.5 
   19300        4.825    14076.779    2973062.1   -680809.75    947468.29    266658.55    3383212.3 
   19400         4.85    14447.011    3023070.1   -658590.28    972387.54    313797.26      3367665 
   19500        4.875    14823.796      3065598    -637273.2    997747.88    360474.68    3352117.8 
   19600          4.9    15187.961    3109402.2    -615938.3    1022258.8    406320.53    3336570.5 
   19700        4.925     15492.34    3151855.6   -592053.87    1042745.7    450691.83    3321023.3 
   19800         4.95    15777.456    3196417.4   -568548.36    1061936.1    493387.72      3305476 
   19900        4.975    15992.539    3250680.4   -541228.54    1076412.7    535184.16    3289928.8 
   20000            5    16199.048    3304801.6   -513913.62    1090312.2    576398.62    3274381.5 
   20100        5.025    16361.276    3357641.3   -484767.07    1101231.3    616464.26    3258834.3 
   20200         5.05    16514.762    3413869.8   -455239.37      1111562    656322.68      3243287 
   20300        5.075    16677.411    3473770.4   -426190.98    1122509.5    696318.49    3227739.7 
   20400          5.1    16848.229    3532838.5   -396660.73    1134006.8    737346.05    3212192.5 
   20500        5.125    17056.243    3589970.3   -368624.46    1148007.6    779383.16    3196645.2 
   20600         5.15    17302.095    3646646.5   -342330.74    1164555.2    822224.45      3181098 
   20700        5.175    17563.423    3701401.8   -315810.59    1182144.5    866333.91    3165550.7 
   20800          5.2    17817.078    3765726.9    -288258.8    1199217.2    910958.44    3150003.5 
   20900        5.225     18063.83    3829402.1   -259382.02    1215825.4    956443.41    3134456.2 
   21000         5.25    18296.487    3900616.5   -228424.67    1231484.9    1003060.2      3118909 
   21100        5.275    18505.467    3972627.2   -195859.12    1245550.8    1049691.7    3103361.7 
   21200          5.3    18706.944    4045752.7   -161557.62    1259111.6      1097554    3087814.5 
   21300        5.325    18922.455    4122646.3   -127830.87    1273617.1    1145786.2    3072267.2 
   21400         5.35    19146.488    4196127.4   -94022.785    1288696.1    1194673.3    3056719.9 
   21500        5.375    19443.865    4265644.8   -63499.118    1308711.7    1245212.6    3041172.7 
   21600          5.4    19787.847    4342886.1   -34778.533    1331864.1    1297085.6    3025625.4 
   21700        5.425    20142.706    4422320.6   -5241.4278    1355748.7    1350507.3    3010078.2 
   21800         5.45    20486.487    4526530.4    25056.005    1378887.6    1403943.6    2994530.9 
   21900        5.475    20837.274    4626230.4    54988.663    1402498.1    1457486.8    2978983.7 
   22000          5.5    21236.366    4724057.9    82057.785    1429359.9    1511417.7    2963436.4 
   22100        5.525    21663.903    4810902.9     107121.9    1458136.2    1565258.1    2947889.2 
   22200         5.55    22139.828    4895655.7    129756.98    1490169.4    1619926.4    2932341.9 
   22300        5.575    22609.471    4983432.7    152507.23    1521779.7    1674286.9    2916794.6 
   22400          5.6     23115.39    5074070.1    173308.43    1555831.7    1729140.1    2901247.4 
   22500        5.625     23617.31    5169847.6    194148.13    1589614.5    1783762.7    2885700.1 
   22600         5.65    24119.764    5271846.9     214872.3    1623433.3    1838305.6    2870152.9 
   22700        5.675    24580.664      5382267    237180.63    1654455.2    1891635.8    2854605.6 
   22800          5.7    24904.249    5525949.4    268968.38    1676234.7    1945203.1    2839058.4 
   22900        5.725    25005.558    5689805.2    314298.96    1683053.6    1997352.6    2823511.1 
   23000         5.75    24966.732    5858882.3    368862.35    1680440.3    2049302.6    2807963.9 
   23100        5.775    24798.344    6035246.1    430923.98    1669106.6    2100030.6    2792416.6 
   23200          5.8    24464.608    6211218.1     502334.5    1646643.8    2148978.3    2776869.4 
   23300        5.825    24068.196    6401422.9    578239.03    1619962.4    2198201.4    2761322.1 
   23400         5.85    23620.431    6565858.1    657257.46    1589824.6    2247082.1    2745774.8 
   23500        5.875    23204.611    6722117.8    734031.11    1561836.9    2295868.1    2730227.6 
   23600          5.9    22844.824    6856416.8    807766.73    1537620.7    2345387.4    2714680.3 
   23700        5.925    22537.072    6991029.2    877884.35    1516906.7    2394791.1    2699133.1 
   23800         5.95    22299.277    7108550.1    943867.39    1500901.4    2444768.8    2683585.8 
   23900        5.975    22112.025    7223090.8      1004946      1488298      2493244    2668038.6 
   24000            6     21903.89    7342804.9    1067420.6      1474289    2541709.6    2652491.3 
   24100        6.025     21682.97    7454555.3    1130369.2    1459419.5    2589788.8    2636944.1 
   24200         6.05    21401.397    7589641.6    1196847.8    1440467.7    2637315.5    2621396.8 
   24300        6.075    21045.498    7721239.6    1267763.8    1416513.1    2684276.9    2605849.6 
   24400          6.1     20672.41    7855570.6    1339984.3    1391401.6    2731385.9    2590302.3 
   24500        6.125    20245.543    7990886.8    1415994.1    1362670.4    2778664.5      2574755 
   24600         6.15    19801.826    8144728.1    1494020.6    1332805.1    2826825.6    2559207.8 
   24700        6.175    19338.041    8294300.4    1574035.5      1301589    2875624.5    2543660.5 
   24800          6.2    19041.931    8435643.4    1645205.1    1281658.6    2926863.7    2528113.3 
   24900        6.225    18806.181    8590762.2    1712833.2      1265791    2978624.2      2512566 
   25000         6.25    18603.792    8737244.6    1778417.7    1252168.7    3030586.4    2497018.8 
   25100        6.275    18403.447    8905425.5    1842768.7    1238684.1    3081452.8    2481471.5 
   25200          6.3    18095.541    9078700.3    1912993.5    1217959.8    3130953.3    2465924.3 
   25300        6.325    17750.324    9274303.9    1985688.6    1194724.2    3180412.8      2450377 
   25400         6.35     17233.27    9464228.2    2068892.9    1159922.8    3228815.7    2434829.7 
   25500        6.375    16692.894    9658427.7    2154812.3    1123551.6      3278364    2419282.5 
   25600          6.4    16100.784    9860689.5    2244414.5    1083698.4    3328112.9    2403735.2 
   25700        6.425    15625.596     10041080      2327214    1051714.8    3378928.8      2388188 
   25800         6.45    15172.848     10225583    2408951.3    1021241.6    3430192.9    2372640.7 
   25900        6.475    14839.047     10407805    2486279.4    998774.43    3485053.8    2357093.5 
   26000          6.5    14875.628     10589872    2556978.2    1001236.6    3558214.8    2341546.2 
   26100        6.525     15626.74     10797073    2628258.6    1051791.8    3680050.4      2325999 
   26200         6.55    16414.274     11014574    2702122.2    1104798.5    3806920.7    2310451.7 
   26300        6.575    16972.637     11233475    2776661.4    1142380.4    3919041.7    2294904.5 
   26400          6.6    17759.128     11477822    2858441.3    1195316.8    4053758.1    2279357.2 
   26500        6.625    17821.084     11740216    2981790.4    1199486.9    4181277.3    2263809.9 
   26600         6.65    17498.112     12019968    3127276.4    1177748.5      4305025    2248262.7 
   26700        6.675    17275.661     12300224    3274978.8      1162776    4437754.9    2232715.4 
   26800          6.7    17159.449     12563935      3406244    1154954.1    4561198.1    2217168.2 
   26900        6.725    17371.858     12861039    3534554.5    1169250.8    4703805.3    2201620.9 
   27000         6.75    17861.761     13185985    3676125.4    1202224.7    4878350.1    2186073.7 
   27100        6.775    18833.478     13504564    3813921.5    1267628.3    5081549.8    2170526.4 
   27200          6.8    19673.681     13865860    3951276.8      1324180    5275456.8    2154979.2 
   27300        6.825    20523.964     14227987    4086197.5    1381410.1    5467607.6    2139431.9 
   27400         6.85    21386.016     14569658    4223501.6    1439432.4      5662934    2123884.7 
   27500        6.875     22000.93     14925177    4364803.6    1480820.5    5845624.2    2108337.4 
   27600          6.9    22482.871     15289005      4507376    1513258.6    6020634.7    2092790.1 
   27700        6.925    22867.153     15665011    4657628.3    1539123.6    6196751.9    2077242.9 
   27800         6.95      23231.3     16028741    4810538.3    1563633.2    6374171.5    2061695.6 
   27900        6.975    23804.209     16405138    4959470.5    1602194.1    6561664.7    2046148.4 
   28000            7    24552.619     16779219    5102336.6    1652567.5    6754904.1    2030601.1 
   28100        7.025     25432.16     17182116      5240317      1711767      6952084    2015053.9 
   28200         7.05    26324.379     17563974    5385463.6    1771819.7    7157283.2    1999506.6 
