LAMMPS (29 Sep 2021)
  using 1 OpenMP thread(s) per MPI task
Reading restart file ...
  restart file = 29 Sep 2021, LAMMPS = 29 Sep 2021
  restoring atom style atomic from restart
  orthogonal box = (-0.71157246 -0.71587421 0.0000000) to (101.92896 101.93326 530.53600)
  2 by 2 by 6 MPI processor grid
  pair style eam/alloy/gpu stores no restart info
  425652 atoms
  read_restart CPU = 0.121 seconds
Resetting global fix info from restart file:
  fix style: npt/gpu, fix ID: 2

CITE-CITE-CITE-CITE-CITE-CITE-CITE-CITE-CITE-CITE-CITE-CITE-CITE

Your simulation uses code contributions which should be cited:
- GPU package (short-range, long-range and three-body potentials):
The log file lists these citations in BibTeX format.

CITE-CITE-CITE-CITE-CITE-CITE-CITE-CITE-CITE-CITE-CITE-CITE-CITE


--------------------------------------------------------------------------
- Using acceleration for eam/alloy:
-  with 12 proc(s) per device.
-  Horizontal vector operations: ENABLED
-  Shared memory system: No
--------------------------------------------------------------------------
Device 0: Tesla V100-SXM2-32GB, 80 CUs, 28/32 GB, 1.5 GHZ (Mixed Precision)
Device 1: Tesla V100-SXM2-32GB, 80 CUs, 1.5 GHZ (Mixed Precision)
--------------------------------------------------------------------------

Initializing Device and compiling on process 0...Done.
Initializing Devices 0-1 on core 0...Done.
Initializing Devices 0-1 on core 1...Done.
Initializing Devices 0-1 on core 2...Done.
Initializing Devices 0-1 on core 3...Done.
Initializing Devices 0-1 on core 4...Done.
Initializing Devices 0-1 on core 5...Done.
Initializing Devices 0-1 on core 6...Done.
Initializing Devices 0-1 on core 7...Done.
Initializing Devices 0-1 on core 8...Done.
Initializing Devices 0-1 on core 9...Done.
Initializing Devices 0-1 on core 10...Done.
Initializing Devices 0-1 on core 11...Done.

All restart file global fix info was re-assigned
Unused restart file peratom fix info:
  fix style: STORE, fix ID: spatialbins_COMPUTE_STORE
Setting up Verlet run ...
  Unit style    : metal
  Current step  : 11000287
  Time step     : 0.00025
Per MPI rank memory allocation (min/avg/max) = 6.636 | 8.488 | 9.423 Mbytes
Step Time Temp PotEng E_pair TotEng Press Volume Lx Ly Lz CPULeft 
11000287            0    299.85752   -1769113.2   -1769113.2   -1752615.1   -110.84195      5589707    102.64053    102.64913      530.536            0 
11010000      2.42825     299.9883   -1769098.9   -1769098.9   -1752593.6   -104.61649    5590473.4    102.65637    102.64737      530.536    7148.0237 
11020000      4.92825    299.82582   -1769107.1   -1769107.1   -1752610.7    55.039974    5590834.1    102.66087    102.64949      530.536    7093.4249 
11030000      7.42825    300.03643   -1769116.1   -1769116.1   -1752608.1    79.682006    5590876.9     102.6601    102.65105      530.536    7024.6576 
11040000      9.92825    299.57268   -1769092.2   -1769092.2   -1752609.8      16.3867    5591111.1    102.65347    102.66198      530.536       6955.1 
11050000     12.42825    299.66703   -1769110.9   -1769110.9   -1752623.3    91.196223      5591791    102.66551    102.66242      530.536    6884.3229 
11060000     14.92825    300.76784   -1769128.7   -1769128.7   -1752580.5   -83.152016    5591469.7    102.65975    102.66228      530.536    6813.0572 
11070000     17.42825    299.93257     -1769116     -1769116   -1752613.8   -62.866666    5591001.4    102.65971    102.65373      530.536    6741.7582 
11080000     19.92825    299.95099   -1769116.1   -1769116.1   -1752612.9    -56.08592      5590812    102.65484    102.65512      530.536    6669.7257 
11090000     22.42825    300.08775   -1769103.4   -1769103.4   -1752592.6   -41.748474    5590103.9    102.65295    102.64401      530.536    6598.0915 
11100000     24.92825    299.60155   -1769107.4   -1769107.4   -1752623.4   -63.859164      5589515    102.64697    102.63917      530.536    6525.9462 
11110000     27.42825    299.81342   -1769120.1   -1769120.1   -1752624.5    14.495115    5589648.3    102.64704    102.64154      530.536    6454.1411 
11120000     29.92825    300.07678   -1769104.7   -1769104.7   -1752594.5   -64.534049    5589913.6    102.64697    102.64649      530.536    6381.7437 
11130000     32.42825    299.33804   -1769118.8   -1769118.8   -1752649.3   -71.540109    5590106.9    102.65414    102.64287      530.536    6309.6742 
11140000     34.92825    299.59243   -1769102.1   -1769102.1   -1752618.6    80.148749    5590290.3    102.64987     102.6505      530.536    6237.4934 
11150000     37.42825    300.14228   -1769144.4   -1769144.4   -1752630.6    138.74978    5590516.4     102.6503    102.65422      530.536    6165.1059 
11160000     39.92825    300.65059   -1769123.2   -1769123.2   -1752581.5    112.76107    5590746.7    102.66239    102.64637      530.536    6092.9398 
11170000     42.42825    300.56614   -1769127.6   -1769127.6   -1752590.6    18.585315    5591242.4    102.66864    102.64922      530.536    6020.5118 
11180000     44.92825    299.51341   -1769088.7   -1769088.7   -1752609.5    70.489733    5591320.5       102.66    102.65929      530.536    5948.1461 
11190000     47.42825    299.76744   -1769120.2   -1769120.2   -1752627.1    104.51076    5590255.3    102.65178    102.64795      530.536     5875.854 
11200000     49.92825    300.24801   -1769124.9   -1769124.9   -1752605.3    12.886841    5589982.6    102.65263     102.6421      530.536    5803.3545 
11210000     52.42825    300.03165   -1769114.9   -1769114.9   -1752607.2   -39.131865    5589537.3    102.64629    102.64026      530.536    5731.0098 
11220000     54.92825    299.53418   -1769107.5   -1769107.5   -1752627.2    8.0941033    5589117.8    102.64738    102.63147      530.536    5658.5412 
11230000     57.42825    300.18004   -1769132.4   -1769132.4   -1752616.5   -29.637165    5589542.9    102.63807    102.64858      530.536    5586.2236 
11240000     59.92825    300.68747   -1769122.7   -1769122.7   -1752578.9    72.282181    5589709.8    102.64998    102.63974      530.536     5513.741 
11250000     62.42825    300.44993   -1769133.4   -1769133.4   -1752602.7   -17.133766    5590527.2    102.65037    102.65436      530.536    5441.3557 
11260000     64.92825    299.79875   -1769121.3   -1769121.3   -1752626.5    57.072208    5590783.7    102.65297    102.65647      530.536    5368.9845 
11270000     67.42825    299.79886   -1769125.9   -1769125.9     -1752631    36.167277    5591377.2     102.6595    102.66084      530.536    5296.5124 
11280000     69.92825    300.03281   -1769111.3   -1769111.3   -1752603.6    112.63671    5591640.5    102.65683    102.66834      530.536    5224.0855 
11290000     72.42825    300.56659     -1769133     -1769133   -1752595.9    92.732843    5591259.2    102.66107     102.6571      530.536    5151.7142 
11300000     74.92825    299.89687   -1769100.4   -1769100.4   -1752600.1   -22.554236    5591555.8    102.66287    102.66075      530.536    5079.1764 
11310000     77.42825     300.0642   -1769124.2   -1769124.2   -1752614.8     11.20454    5590771.2    102.66339    102.64581      530.536    5006.6662 
11320000     79.92825    299.63638   -1769096.3   -1769096.3   -1752610.4    32.532259    5589848.4     102.6499    102.64236      530.536    4934.2188 
11330000     82.42825    300.22152   -1769095.5   -1769095.5   -1752577.4   -67.321065    5589557.3    102.64969    102.63722      530.536    4861.8149 
11340000     84.92825    299.76466   -1769110.9   -1769110.9   -1752617.9    -34.64404    5589517.5    102.64416    102.64203      530.536    4789.3318 
11350000     87.42825    300.17414   -1769136.5   -1769136.5     -1752621    85.170921    5588964.4    102.63861    102.63742      530.536    4716.8375 
11360000     89.92825    300.01227   -1769110.9   -1769110.9   -1752604.4   -72.546136    5590163.8    102.65481    102.64324      530.536    4644.3616 
11370000     92.42825     300.2214   -1769128.3   -1769128.3   -1752610.2   -30.275355    5591046.8    102.66098    102.65329      530.536    4571.8111 
11380000     94.92825    299.94044   -1769105.2   -1769105.2   -1752602.6    8.2579845    5591356.9    102.66599    102.65397      530.536    4499.3466 
11390000     97.42825    299.90794   -1769127.5   -1769127.5   -1752626.7    91.039513    5591597.6    102.66281    102.66157      530.536    4426.8243 
11400000     99.92825    299.77952   -1769116.1   -1769116.1   -1752622.4    53.885813    5592223.5     102.6683    102.66757      530.536    4354.2817 
11410000    102.42825    300.07032   -1769115.6   -1769115.6   -1752605.8   -23.887182    5592007.8    102.67031     102.6616      530.536    4281.8271 
11420000    104.92825    299.75267   -1769109.3   -1769109.3     -1752617    27.921513    5591337.4    102.66237    102.65723      530.536    4209.2642 
11430000    107.42825    300.26852     -1769120     -1769120   -1752599.3   -3.2851408    5591281.9    102.66411    102.65448      530.536    4136.7508 
11440000    109.92825    299.74161   -1769119.9   -1769119.9   -1752628.2   0.62410428      5590173    102.65798    102.64024      530.536    4064.2234 
11450000    112.42825    299.99394   -1769126.6   -1769126.6   -1752621.1    38.791674    5589439.4    102.65217    102.63259      530.536    3991.6848 
11460000    114.92825    299.81366   -1769112.5   -1769112.5   -1752616.8   -61.420036      5589989    102.65001    102.64484      530.536    3919.1699 
11470000    117.42825    299.77635   -1769101.1   -1769101.1   -1752607.5    -162.7888    5590186.5    102.64779    102.65068      530.536    3846.6359 
11480000    119.92825    300.08149   -1769122.8   -1769122.8   -1752612.4   -73.480566    5590229.3    102.66432    102.63494      530.536    3774.1338 
11490000    122.42825    300.05863   -1769099.6   -1769099.6   -1752590.4    38.354423    5591178.9    102.66486    102.65184      530.536    3701.5458 
11500000    124.92825    299.84875   -1769111.5   -1769111.5     -1752614   -51.209223    5591821.4    102.66615    102.66234      530.536    3629.0594 
11510000    127.42825    300.01495   -1769115.2   -1769115.2   -1752608.5    146.49618      5591489    102.65923    102.66315      530.536    3556.5279 
11520000    129.92825    300.41254   -1769121.2   -1769121.2   -1752592.6    131.03644    5591829.1    102.66482    102.66381      530.536     3483.949 
11530000    132.42825    300.12571   -1769106.8   -1769106.8     -1752594    50.241418    5591673.2    102.66683    102.65894      530.536    3411.4243 
11540000    134.92825    299.71033     -1769107     -1769107     -1752617   -23.931204    5591224.7    102.65709    102.66044      530.536    3338.8638 
11550000    137.42825    299.53936   -1769108.5   -1769108.5   -1752627.9    36.125169    5590681.8     102.6523    102.65527      530.536    3266.3419 
11560000    139.92825    300.25686   -1769093.5   -1769093.5   -1752573.4    76.057488    5589984.3    102.64622    102.64854      530.536    3193.7972 
11570000    142.42825    300.18644   -1769136.3   -1769136.3   -1752620.2    71.291558    5589565.6    102.64138    102.64569      530.536    3121.2539 
11580000    144.92825    300.40774   -1769129.1   -1769129.1   -1752600.8   -6.8003092    5590366.7    102.65396    102.64782      530.536     3048.739 
11590000    147.42825    299.82647     -1769102     -1769102   -1752605.6   -94.426882    5590637.7    102.66176      102.645      530.536    2976.1821 
11600000    149.92825    299.93053   -1769131.3   -1769131.3   -1752629.2   -87.041539    5590551.3    102.64825    102.65692      530.536    2903.6454 
11610000    152.42825    300.10131   -1769112.4   -1769112.4     -1752601    -70.84942    5591460.8    102.66567     102.6562      530.536    2831.0883 
11620000    154.92825    299.75286   -1769129.6   -1769129.6   -1752637.3   -13.356008      5591748      102.663    102.66414      530.536    2758.5553 
11630000    157.42825    299.87037   -1769145.2   -1769145.2   -1752646.4    85.724789      5591458    102.65417    102.66765      530.536    2685.9937 
11640000    159.92825    299.91914   -1769138.7   -1769138.7   -1752637.3    84.103839    5592178.7    102.66529    102.66976      530.536    2613.4245 
11650000    162.42825    300.10586   -1769114.2   -1769114.2   -1752602.5    154.27616    5591487.7    102.66299    102.65937      530.536     2540.901 
11660000    164.92825    300.43527   -1769106.1   -1769106.1   -1752576.3   -2.7920994    5591832.3    102.66635    102.66234      530.536    2468.3689 
11670000    167.42825    299.51043   -1769093.2   -1769093.2   -1752614.2    49.197632    5591135.1    102.66012    102.65576      530.536    2395.8107 
11680000    169.92825    300.02993   -1769134.6   -1769134.6     -1752627   -31.541336    5591066.7      102.652    102.66264      530.536    2323.2672 
11690000    172.42825     299.7317   -1769119.2   -1769119.2     -1752628   -110.07151    5590797.3    102.65719     102.6525      530.536     2250.702 
11700000    174.92825    299.59463   -1769122.1   -1769122.1   -1752638.5   -101.20093    5590596.1    102.64199    102.66401      530.536    2178.1523 
11710000    177.42825    300.50183   -1769121.9   -1769121.9   -1752588.4   -28.392444    5590096.9    102.65622     102.6406      530.536    2105.5796 
11720000    179.92825    300.14313   -1769124.9   -1769124.9   -1752611.1    82.286351      5589624    102.65046    102.63768      530.536     2032.993 
11730000    182.42825    300.03106   -1769115.5   -1769115.5   -1752607.9    40.162138    5590852.9    102.66449    102.64622      530.536    1960.3966 
11740000    184.92825    299.82834   -1769095.8   -1769095.8   -1752599.4    19.411797    5591279.6     102.6642    102.65434      530.536    1887.8007 
11750000    187.42825    299.98187   -1769131.1   -1769131.1   -1752626.2    22.966324    5592092.5    102.66663    102.66683      530.536    1815.2157 
11760000    189.92825    300.16963     -1769135     -1769135   -1752619.8   -29.381059    5592749.4    102.67399    102.67154      530.536    1742.6249 
11770000    192.42825    300.43247   -1769129.8   -1769129.8   -1752600.1   -23.945774    5592277.9     102.6684    102.66847      530.536    1670.0469 
11780000    194.92825    300.18315   -1769100.4   -1769100.4   -1752584.5   -94.172228    5591952.3    102.66153    102.66936      530.536    1597.4908 
11790000    197.42825    299.70398   -1769107.5   -1769107.5   -1752617.8    -40.42714    5591979.5    102.65928    102.67211      530.536    1524.9288 
11800000    199.92825    300.00828   -1769125.3   -1769125.3   -1752618.9   -82.683624    5590810.1    102.65744    102.65248      530.536    1452.3786 
11810000    202.42825    300.80507   -1769125.4   -1769125.4   -1752575.2   -110.32555    5590747.1    102.65786    102.65091      530.536    1379.8363 
11820000    204.92825    300.06556   -1769116.8   -1769116.8   -1752607.3   -68.108441      5590408    102.65325    102.64929      530.536    1307.3226 
11830000    207.42825    300.02807   -1769108.1   -1769108.1   -1752600.7    -147.5294    5590541.2    102.65473    102.65025      530.536    1234.7986 
11840000    209.92825    299.84649   -1769129.2   -1769129.2   -1752631.7   0.43667149    5589813.9    102.65137    102.64026      530.536    1162.2726 
11850000    212.42825    300.17365   -1769118.9   -1769118.9   -1752603.5   -29.038039    5590698.9    102.65249    102.65539      530.536    1089.7565 
11860000    214.92825    299.97329   -1769091.4   -1769091.4   -1752586.9   -89.213923      5591532    102.65314    102.67004      530.536    1017.2312 
11870000    217.42825    300.22464   -1769132.5   -1769132.5   -1752614.3   -24.029134    5591569.6    102.66718    102.65668      530.536    944.72248 
11880000    219.92825    300.19659   -1769111.7   -1769111.7     -1752595    63.024107    5591946.4    102.66792    102.66287      530.536    872.21195 
11890000    222.42825    299.78409   -1769114.9   -1769114.9   -1752620.9    60.264504    5591536.2    102.66581    102.65744      530.536    799.69331 
11900000    224.92825    300.10627     -1769113     -1769113   -1752601.3    90.893965    5591673.1    102.65913    102.66664      530.536    727.17945 
11910000    227.42825    300.46397   -1769127.3   -1769127.3   -1752595.9    99.357151    5591345.4    102.66072    102.65903      530.536    654.66483 
11920000    229.92825    299.60565   -1769114.4   -1769114.4   -1752630.2   -27.788451      5591152    102.66322    102.65298      530.536    582.15562 
11930000    232.42825    299.41418   -1769106.9   -1769106.9   -1752633.2   -105.97054    5590895.4    102.65955    102.65194      530.536    509.64384 
11940000    234.92825    300.17348   -1769119.3   -1769119.3   -1752603.8   -98.292146    5590452.5    102.65421    102.64915      530.536    437.13221 
11950000    237.42825    300.14994   -1769113.6   -1769113.6   -1752599.4   -115.38962    5590357.6    102.64977    102.65184      530.536    364.62436 
11960000    239.92825    299.37097   -1769120.9   -1769120.9   -1752649.6    2.9069232    5590150.3    102.65425    102.64355      530.536    292.11434 
11970000    242.42825    300.22301   -1769101.9   -1769101.9   -1752583.7   -49.449281    5590635.3    102.65153    102.65518      530.536    219.60663 
11980000    244.92825    300.31506   -1769117.7   -1769117.7   -1752594.5   -15.292245    5590939.9     102.6483    102.66401      530.536    147.09767 
11990000    247.42825    300.53709   -1769121.7   -1769121.7   -1752586.2   -5.9033416    5591639.5    102.66673    102.65842      530.536    74.588967 
12000000    249.92825    299.92242     -1769127     -1769127   -1752625.4    186.58408    5591720.9    102.66051    102.66613      530.536    2.0809896 
12000287          250    299.97291   -1769098.6   -1769098.6   -1752594.2   -39.991865    5592719.4    102.66943    102.67555      530.536            0 
Loop time of 7250.83 on 24 procs for 1000000 steps with 425652 atoms

Performance: 2.979 ns/day, 8.056 hours/ns, 137.915 timesteps/s
99.9% CPU use with 24 MPI tasks x 1 OpenMP threads

MPI task timing breakdown:
Section |  min time  |  avg time  |  max time  |%varavg| %total
---------------------------------------------------------------
Pair    | 3091.9     | 3665.6     | 4118.6     | 465.1 | 50.55
Neigh   | 0.25711    | 0.47015    | 0.54771    |  14.8 |  0.01
Comm    | 687.4      | 707.5      | 733.6      |  49.7 |  9.76
Output  | 3.4684     | 3.4692     | 3.4711     |   0.0 |  0.05
Modify  | 2092.9     | 2543       | 3086.7     | 547.6 | 35.07
Other   |            | 330.8      |            |       |  4.56

Nlocal:        17735.5 ave       18642 max       16108 min
Histogram: 8 0 0 0 0 0 0 0 1 15
Nghost:        17137.8 ave       19153 max       13928 min
Histogram: 8 0 0 0 0 0 0 0 8 8
Neighs:         0.00000 ave           0 max           0 min
Histogram: 24 0 0 0 0 0 0 0 0 0

Total # of neighbors = 0
Ave neighs/atom = 0.0000000
Neighbor list builds = 2533
Dangerous builds = 0
System init for write_restart ...


---------------------------------------------------------------------
      Device Time Info (average): 
---------------------------------------------------------------------
Data Transfer:   434.6819 s.
Neighbor copy:   0.0921 s.
Neighbor build:  6.3243 s.
Force calc:      2024.2887 s.
Device Overhead: 1317.0237 s.
Average split:   1.0000.
Lanes / atom:    4.
Vector width:    32.
Max Mem / Proc:  31.91 MB.
CPU Neighbor:    1.1192 s.
CPU Cast/Pack:   448.6138 s.
CPU Driver_Time: 22.5370 s.
CPU Idle_Time:   1029.4138 s.
---------------------------------------------------------------------


--------------------------------------------------------------------------
- Using acceleration for eam/alloy:
-  with 12 proc(s) per device.
-  Horizontal vector operations: ENABLED
-  Shared memory system: No
--------------------------------------------------------------------------
Device 0: Tesla V100-SXM2-32GB, 80 CUs, 28/32 GB, 1.5 GHZ (Mixed Precision)
Device 1: Tesla V100-SXM2-32GB, 80 CUs, 1.5 GHZ (Mixed Precision)
--------------------------------------------------------------------------

Initializing Device and compiling on process 0...Done.
Initializing Devices 0-1 on core 0...Done.
Initializing Devices 0-1 on core 1...Done.
Initializing Devices 0-1 on core 2...Done.
Initializing Devices 0-1 on core 3...Done.
Initializing Devices 0-1 on core 4...Done.
Initializing Devices 0-1 on core 5...Done.
Initializing Devices 0-1 on core 6...Done.
Initializing Devices 0-1 on core 7...Done.
Initializing Devices 0-1 on core 8...Done.
Initializing Devices 0-1 on core 9...Done.
Initializing Devices 0-1 on core 10...Done.
Initializing Devices 0-1 on core 11...Done.

System init for write_data ...

--------------------------------------------------------------------------
- Using acceleration for eam/alloy:
-  with 12 proc(s) per device.
-  Horizontal vector operations: ENABLED
-  Shared memory system: No
--------------------------------------------------------------------------
Device 0: Tesla V100-SXM2-32GB, 80 CUs, 28/32 GB, 1.5 GHZ (Mixed Precision)
Device 1: Tesla V100-SXM2-32GB, 80 CUs, 1.5 GHZ (Mixed Precision)
--------------------------------------------------------------------------

Initializing Device and compiling on process 0...Done.
Initializing Devices 0-1 on core 0...Done.
Initializing Devices 0-1 on core 1...Done.
Initializing Devices 0-1 on core 2...Done.
Initializing Devices 0-1 on core 3...Done.
Initializing Devices 0-1 on core 4...Done.
Initializing Devices 0-1 on core 5...Done.
Initializing Devices 0-1 on core 6...Done.
Initializing Devices 0-1 on core 7...Done.
Initializing Devices 0-1 on core 8...Done.
Initializing Devices 0-1 on core 9...Done.
Initializing Devices 0-1 on core 10...Done.
Initializing Devices 0-1 on core 11...Done.

Total wall time: 2:00:56
