LAMMPS (29 Sep 2021)
  using 1 OpenMP thread(s) per MPI task
Reading data file ...
  orthogonal box = (-0.39686059 -0.39310336 0.0000000) to (102.14488 101.64112 526.16902)
  3 by 2 by 16 MPI processor grid
  reading atoms ...
  444272 atoms
  reading velocities ...
  444272 velocities
  read_data CPU = 5.015 seconds
222085 atoms in group g_left
222187 atoms in group g_right

CITE-CITE-CITE-CITE-CITE-CITE-CITE-CITE-CITE-CITE-CITE-CITE-CITE

Your simulation uses code contributions which should be cited:
- @article{cjiang2012
The log file lists these citations in BibTeX format.

CITE-CITE-CITE-CITE-CITE-CITE-CITE-CITE-CITE-CITE-CITE-CITE-CITE

Neighbor list info ...
  update every 1 steps, delay 10 steps, check yes
  max neighbors/atom: 2000, page size: 100000
  master list distance cutoff = 8.28721
  ghost atom cutoff = 8.28721
  binsize = 4.143605, bins = 25 25 127
  3 neighbor lists, perpetual/occasional/extra = 3 0 0
  (1) pair eam/alloy, perpetual, skip from (3)
      attributes: half, newton on
      pair build: skip
      stencil: none
      bin: none
  (2) pair edip/multi, perpetual
      attributes: full, newton on
      pair build: full/bin/atomonly
      stencil: full/bin/3d
      bin: standard
  (3) neighbor class addition, perpetual, half/full from (2)
      attributes: half, newton on
      pair build: halffull/newton
      stencil: none
      bin: none
Setting up Verlet run ...
  Unit style    : metal
  Current step  : 0
  Time step     : 0.00025
Per MPI rank memory allocation (min/avg/max) = 8.328 | 12.55 | 14.57 Mbytes
Step Time Temp Press PotEng KinEng TotEng Volume 
       0            0    2275.3598    22196.464   -2068877.4    130666.03   -1938211.4    5505183.5 
     100        0.025    2274.9728    22191.845   -2068869.5    130643.81   -1938225.7    5499952.1 
     200         0.05    2275.0868    22101.027   -2068883.2    130650.35   -1938232.9    5494720.7 
     300        0.075    2275.0773    22075.071   -2068881.8    130649.81     -1938232    5489489.4 
     400          0.1    2274.5132    22344.179   -2068844.8    130617.41   -1938227.4      5484258 
     500        0.125    2275.1492    22147.491   -2068875.2    130653.93   -1938221.2    5479026.6 
     600         0.15    2275.3038    22017.533   -2068888.6    130662.81   -1938225.8    5473795.2 
     700        0.175    2274.8095    22094.867   -2068867.1    130634.42   -1938232.7    5468563.8 
     800          0.2    2274.7855    22182.297     -2068873    130633.05     -1938240    5463332.4 
     900        0.225    2274.2354    22304.812   -2068840.7    130601.46   -1938239.2    5458101.1 
    1000         0.25    2274.6993    22306.239   -2068866.3    130628.09   -1938238.2    5452869.7 
    1100        0.275    2274.9268    22199.348   -2068881.3    130641.16   -1938240.1    5447638.3 
    1200          0.3    2274.5638    22332.867   -2068859.1    130620.32   -1938238.7    5442406.9 
    1300        0.325    2274.5609    22472.487     -2068851    130620.15   -1938230.8    5437175.5 
    1400         0.35    2274.8343     22287.59   -2068858.6    130635.85   -1938222.8    5431944.1 
    1500        0.375     2275.155    22301.559   -2068874.5    130654.27   -1938220.3    5426712.8 
    1600          0.4    2274.7039    22243.545   -2068850.9    130628.36   -1938222.5    5421481.4 
    1700        0.425    2274.9982    22455.418   -2068874.6    130645.26   -1938229.3      5416250 
    1800         0.45    2274.8927    22531.901   -2068869.8     130639.2   -1938230.6    5411018.6 
    1900        0.475    2275.2446    22471.269   -2068889.6    130659.41   -1938230.2    5405787.2 
    2000          0.5    2274.9754    22513.659   -2068873.1    130643.95   -1938229.1    5400555.8 
    2100        0.525    2274.5709    22373.028   -2068850.3    130620.72   -1938229.6    5395324.5 
    2200         0.55    2274.8503    22534.572   -2068869.1    130636.77   -1938232.4    5390093.1 
    2300        0.575    2275.4702    22460.117   -2068901.7    130672.37   -1938229.3    5384861.7 
    2400          0.6    2274.9035    22331.659     -2068865    130639.82   -1938225.2    5379630.3 
    2500        0.625    2274.8068    22601.918   -2068853.1    130634.27   -1938218.9    5374398.9 
    2600         0.65    2275.0188    22695.364   -2068859.1    130646.45   -1938212.6    5369167.5 
    2700        0.675    2275.2896    22644.853   -2068877.9       130662   -1938215.9    5363936.2 
    2800          0.7    2275.0956    22575.029   -2068868.3    130650.85   -1938217.4    5358704.8 
    2900        0.725    2275.0449    22739.199   -2068866.4    130647.95   -1938218.4    5353473.4 
    3000         0.75    2274.8634    23009.859   -2068855.5    130637.52     -1938218      5348242 
    3100        0.775    2274.9722    22828.184     -2068859    130643.77   -1938215.2    5343010.6 
    3200          0.8    2275.2944    22589.292   -2068874.3    130662.27     -1938212    5337779.2 
    3300        0.825    2275.2528    22794.347   -2068875.8    130659.88   -1938215.9    5332547.9 
    3400         0.85    2274.9615    22806.067   -2068857.7    130643.16   -1938214.5    5327316.5 
    3500        0.875    2275.1097    22830.153   -2068860.8    130651.66   -1938209.2    5322085.1 
    3600          0.9     2274.999      22924.3   -2068851.5    130645.31   -1938206.2    5316853.7 
    3700        0.925    2275.5056    22993.172   -2068884.5     130674.4   -1938210.1    5311622.3 
    3800         0.95    2275.1142    22971.619   -2068868.8    130651.93   -1938216.9    5306390.9 
    3900        0.975    2275.1188    23009.365   -2068864.1    130652.19   -1938211.9    5301159.6 
    4000            1    2275.1432    22921.026   -2068858.9    130653.59   -1938205.3    5295928.2 
    4100        1.025    2275.2198    23025.489   -2068854.9    130657.99   -1938196.9    5290696.8 
    4200         1.05    2275.3251    23045.179   -2068855.1    130664.03     -1938191    5285465.4 
    4300        1.075    2275.7716     22794.19   -2068880.6    130689.67   -1938190.9      5280234 
    4400          1.1    2275.1082    23194.164   -2068852.2    130651.58   -1938200.6    5275002.6 
    4500        1.125    2275.3615    23107.224     -2068869    130666.13   -1938202.9    5269771.3 
    4600         1.15    2275.8308    22971.926   -2068892.4    130693.08   -1938199.4    5264539.9 
    4700        1.175    2277.1017    23029.915   -2068960.1    130766.06     -1938194    5259308.5 
    4800          1.2     2279.198     23042.86   -2069076.4    130886.44   -1938189.9    5254077.1 
    4900        1.225     2282.182    22824.494   -2069249.8     131057.8     -1938192    5248845.7 
    5000         1.25    2284.0138    22983.727   -2069355.6    131162.99   -1938192.6    5243614.3 
    5100        1.275     2283.483    23353.602   -2069321.2    131132.51   -1938188.7      5238383 
    5200          1.3    2281.6316    23702.728   -2069217.3     131026.2   -1938191.1    5233151.6 
    5300        1.325    2279.6547     24517.91   -2069106.7    130912.67     -1938194    5227920.2 
    5400         1.35    2277.7137    25317.077   -2068996.2    130801.21     -1938195    5222688.8 
    5500        1.375     2273.028     25929.51   -2068725.2    130532.12   -1938193.1    5217457.4 
    5600          1.4     2270.775    26727.267   -2068594.1    130402.74   -1938191.3      5212226 
    5700        1.425    2266.2958     27496.17   -2068333.1    130145.51   -1938187.6    5206994.7 
    5800         1.45    2262.7855    28562.253   -2068128.6    129943.93   -1938184.7    5201763.3 
    5900        1.475    2255.8656    29701.899   -2067725.2    129546.54   -1938178.6    5196531.9 
    6000          1.5    2251.0428    30619.022   -2067440.6    129269.59   -1938171.1    5191300.5 
    6100        1.525    2244.9283    31978.894   -2067084.1    128918.45   -1938165.7    5186069.1 
    6200         1.55    2237.4388     33315.09   -2066651.6    128488.35   -1938163.2    5180837.7 
    6300        1.575    2229.4383    34463.807   -2066183.9    128028.92     -1938155    5175606.4 
    6400          1.6    2220.8772    35907.018   -2065689.2    127537.28   -1938151.9      5170375 
    6500        1.625    2213.6044    37474.371   -2065268.5    127119.63   -1938148.9    5165143.6 
    6600         1.65    2204.0024    39105.507     -2064720    126568.22   -1938151.8    5159912.2 
    6700        1.675    2195.1865    40512.363   -2064217.8    126061.95   -1938155.8    5154680.8 
    6800          1.7    2185.7188    41880.204     -2063673    125518.26   -1938154.7    5149449.4 
    6900        1.725    2176.4481    43145.968   -2063144.8    124985.87   -1938158.9    5144218.1 
    7000         1.75    2165.9649    44984.513   -2062540.7    124383.86   -1938156.9    5138986.7 
    7100        1.775     2156.389    46160.641   -2061990.2    123833.95   -1938156.2    5133755.3 
    7200          1.8    2145.0315    47973.275   -2061340.4    123181.73   -1938158.7    5128523.9 
    7300        1.825    2134.1141    49290.911   -2060713.1    122554.78   -1938158.4    5123292.5 
    7400         1.85    2123.3851    50842.935   -2060100.6    121938.65     -1938162    5118061.1 
    7500        1.875    2112.2233    52767.326   -2059456.3    121297.66   -1938158.6    5112829.8 
    7600          1.9    2100.3624    54575.213   -2058768.4    120616.53   -1938151.8    5107598.4 
    7700        1.925    2088.7448    56101.483   -2058095.5    119949.37   -1938146.2      5102367 
    7800         1.95    2076.4442    57768.801   -2057388.4    119242.99   -1938145.4    5097135.6 
    7900        1.975    2065.0916    59797.822   -2056739.2    118591.05   -1938148.2    5091904.2 
    8000            2    2052.7984     61837.84   -2056033.3    117885.09   -1938148.2    5086672.8 
    8100        2.025    2039.7011    63848.022   -2055276.9    117132.97   -1938143.9    5081441.5 
    8200         2.05    2028.2556    65637.391   -2054620.1    116475.69   -1938144.5    5076210.1 
    8300        2.075    2014.8008    67568.381   -2053853.3    115703.03   -1938150.3    5070978.7 
    8400          2.1    2002.0094     69631.57   -2053123.6    114968.46   -1938155.2    5065747.3 
    8500        2.125    1988.9635     71801.35   -2052372.2    114219.28   -1938152.9    5060515.9 
    8600         2.15      1976.48    73671.901   -2051656.2    113502.39   -1938153.9    5055284.5 
    8700        2.175    1963.8974     75738.77   -2050935.6    112779.82   -1938155.8    5050053.2 
    8800          2.2    1950.8038     77874.28   -2050186.4     112027.9   -1938158.5    5044821.8 
    8900        2.225    1937.9918    79886.261   -2049450.1    111292.15   -1938157.9    5039590.4 
    9000         2.25    1924.6671    82299.631   -2048684.6    110526.96   -1938157.6      5034359 
    9100        2.275    1912.7383     84076.06   -2048002.7    109841.93   -1938160.7    5029127.6 
    9200          2.3    1898.9269    86384.566   -2047219.7    109048.79   -1938170.9    5023896.3 
    9300        2.325    1886.6572    88428.148   -2046519.4    108344.18   -1938175.3    5018664.9 
    9400         2.35    1873.1488    90603.867   -2045746.6    107568.44   -1938178.1    5013433.5 
    9500        2.375    1860.7676    92761.654   -2045030.3    106857.43   -1938172.9    5008202.1 
    9600          2.4    1847.5047    94708.658   -2044265.5    106095.79   -1938169.7    5002970.7 
    9700        2.425    1835.4964    97005.501   -2043572.3     105406.2   -1938166.1    4997739.3 
    9800         2.45    1822.1939    99114.371   -2042806.5    104642.28   -1938164.2      4992508 
    9900        2.475    1809.9925    101250.91   -2042102.3    103941.59   -1938160.7    4987276.6 
   10000          2.5    1796.6505    103410.81   -2041336.3    103175.41   -1938160.9    4982045.2 
   10100        2.525    1783.5384     105791.2     -2040585    102422.43   -1938162.6    4976813.8 
   10200         2.55    1770.4176    108694.57   -2039835.5    101668.95   -1938166.6    4971582.4 
   10300        2.575    1758.7847    111243.47   -2039172.2    101000.91   -1938171.3      4966351 
   10400          2.6    1744.7402    114179.05   -2038363.9    100194.39   -1938169.5    4961119.7 
   10500        2.625    1732.9485    117152.98   -2037687.3    99517.225   -1938170.1    4955888.3 
   10600         2.65     1721.531    120276.56   -2037032.4    98861.556   -1938170.8    4950656.9 
   10700        2.675    1709.2116    123582.87   -2036324.4      98154.1   -1938170.3    4945425.5 
   10800          2.7    1696.7768    126613.74   -2035620.2    97440.011   -1938180.2    4940194.1 
   10900        2.725    1684.2923    129610.51     -2034909    96723.069   -1938185.9    4934962.7 
   11000         2.75     1672.893    132265.45   -2034249.7    96068.445   -1938181.3    4929731.4 
   11100        2.775    1661.0022    134818.32   -2033559.5    95385.597   -1938173.9      4924500 
   11200          2.8    1649.1042    136961.23   -2032872.7     94702.34   -1938170.4    4919268.6 
   11300        2.825    1638.3721    139222.12   -2032267.2    94086.029   -1938181.2    4914037.2 
   11400         2.85     1625.982    141324.73   -2031564.4    93374.511   -1938189.9    4908805.8 
   11500        2.875    1613.6659    143487.74     -2030859    92667.241   -1938191.8    4903574.4 
   11600          2.9    1603.0024    146158.67   -2030243.8    92054.874   -1938188.9    4898343.1 
   11700        2.925    1591.0238    148519.65   -2029558.1    91366.984   -1938191.1    4893111.7 
   11800         2.95    1578.9864    151027.08   -2028869.9    90675.717   -1938194.1    4887880.3 
   11900        2.975    1567.5151    153574.48   -2028213.5    90016.962   -1938196.6    4882648.9 
   12000            3    1555.5534     156452.9   -2027525.5    89330.038   -1938195.5    4877417.5 
   12100        3.025    1544.1445    159024.71     -2026862    88674.869   -1938187.1    4872186.1 
   12200         3.05    1532.3488    161886.42   -2026182.2    87997.483   -1938184.7    4866954.8 
   12300        3.075    1519.7515    164735.96   -2025461.5    87274.058   -1938187.4    4861723.4 
   12400          3.1    1507.8047    167901.66   -2024779.2        86588   -1938191.2      4856492 
   12500        3.125    1496.3171    170861.98   -2024128.2    85928.303   -1938199.9    4851260.6 
   12600         3.15    1482.8224    173427.57   -2023359.9    85153.353   -1938206.5    4846029.2 
   12700        3.175    1470.3878     176393.3   -2022649.2    84439.272   -1938209.9    4840797.8 
   12800          3.2    1459.5046    179169.47     -2022021     83814.29   -1938206.7    4835566.5 
   12900        3.225    1446.7375    181618.66   -2021278.9    83081.122   -1938197.8    4830335.1 
   13000         3.25    1435.4645    184187.55   -2020629.2    82433.752   -1938195.5    4825103.7 
   13100        3.275    1422.7088    186377.51   -2019905.8    81701.237   -1938204.6    4819872.3 
   13200          3.3     1410.276    188962.41   -2019197.7    80987.265   -1938210.4    4814640.9 
   13300        3.325    1397.6971    191507.99   -2018476.7    80264.902   -1938211.8    4809409.5 
   13400         3.35    1386.4631    194015.91   -2017832.7    79619.768   -1938212.9    4804178.2 
   13500        3.375    1372.4095    196416.49   -2017028.7    78812.722     -1938216    4798946.8 
   13600          3.4    1360.6421    198894.33   -2016355.6     78136.96   -1938218.6    4793715.4 
   13700        3.425    1348.7854    201272.01   -2015678.4    77456.069   -1938222.3      4788484 
   13800         3.45    1336.3548    203471.28   -2014970.3    76742.223   -1938228.1    4783252.6 
   13900        3.475    1323.1741    205522.98   -2014215.8    75985.301   -1938230.5    4778021.2 
   14000          3.5    1310.9004    208084.22   -2013511.9    75280.469   -1938231.4    4772789.9 
   14100        3.525    1298.6718    210338.93   -2012815.5    74578.221   -1938237.3    4767558.5 
   14200         3.55    1285.0853    213127.41   -2012038.4    73797.995   -1938240.4    4762327.1 
   14300        3.575    1272.7862    215426.69   -2011333.4    73091.701   -1938241.7    4757095.7 
   14400          3.6    1260.8105    217632.74   -2010646.6    72403.974   -1938242.6    4751864.3 
   14500        3.625    1247.3337    219987.93   -2009872.1    71630.054   -1938242.1    4746632.9 
   14600         3.65     1234.841    222482.67   -2009151.8     70912.64   -1938239.1    4741401.6 
   14700        3.675     1222.972    224924.32   -2008473.6    70231.042   -1938242.6    4736170.2 
   14800          3.7    1209.8865    227419.28   -2007725.7    69479.589   -1938246.1    4730938.8 
   14900        3.725    1196.7467    229404.69   -2006974.9    68725.017   -1938249.9    4725707.4 
   15000         3.75    1184.5514    232024.98     -2006275    68024.682   -1938250.4      4720476 
   15100        3.775    1171.8832    234186.74   -2005544.9    67297.189   -1938247.7    4715244.6 
   15200          3.8    1159.6289    237022.67   -2004835.3    66593.468   -1938241.8    4710013.3 
   15300        3.825    1146.5619    239368.66   -2004086.3    65843.075   -1938243.2    4704781.9 
   15400         3.85    1135.3592    241685.55   -2003445.7    65199.746     -1938246    4699550.5 
   15500        3.875    1125.3124    243228.02   -2002870.8    64622.792     -1938248    4694319.1 
   15600          3.9    1115.0644    245048.48   -2002282.9    64034.282   -1938248.6    4689087.7 
   15700        3.925    1104.9005    246710.79   -2001701.3    63450.604   -1938250.7    4683856.3 
   15800         3.95    1096.7553    248181.89   -2001237.7    62982.854   -1938254.8      4678625 
   15900        3.975    1086.4186    249510.52   -2000645.2    62389.257   -1938255.9    4673393.6 
   16000            4    1077.7904    251662.48   -2000151.5    61893.768   -1938257.7    4668162.2 
   16100        4.025    1069.7701    253076.91   -1999692.8    61433.191   -1938259.6    4662930.8 
   16200         4.05    1062.2393     254593.4   -1999260.5    61000.719   -1938259.8    4657699.4 
   16300        4.075    1054.8449    256315.23   -1998834.7    60576.089   -1938258.6      4652468 
   16400          4.1    1049.5949    257797.75   -1998536.1    60274.595   -1938261.5    4647236.7 
   16500        4.125    1044.2331    259126.14   -1998239.5    59966.687   -1938272.8    4642005.3 
   16600         4.15    1040.3054    260870.92   -1998021.6    59741.136   -1938280.4    4636773.9 
   16700        4.175    1036.5223    262364.76   -1997800.7    59523.885   -1938276.9    4631542.5 
   16800          4.2    1032.7923    263636.65     -1997589    59309.679   -1938279.3    4626311.1 
   16900        4.225    1029.0243    265284.93     -1997376    59093.299   -1938282.7    4621079.7 
   17000         4.25    1025.3084    266671.49   -1997168.9    58879.905     -1938289    4615848.4 
   17100        4.275    1021.0287    268273.15   -1996924.4    58634.142   -1938290.3      4610617 
   17200          4.3    1018.4628    269583.44   -1996776.2    58486.788   -1938289.4    4605385.6 
   17300        4.325    1014.1611    271479.43   -1996521.6    58239.757   -1938281.9    4600154.2 
   17400         4.35    1011.7705    272705.66   -1996374.9    58102.472   -1938272.5    4594922.8 
   17500        4.375    1008.4802    274416.49   -1996182.8    57913.521   -1938269.2    4589691.4 
   17600          4.4    1004.9688    275359.27   -1995984.9    57711.874     -1938273    4584460.1 
   17700        4.425    1001.4898    276581.02   -1995790.1    57512.086     -1938278    4579228.7 
   17800         4.45    997.97983    277872.59   -1995584.5    57310.523   -1938273.9    4573997.3 
   17900        4.475    993.71446    278990.67   -1995333.9    57065.577   -1938268.3    4568765.9 
   18000          4.5    988.05382    280310.52   -1994998.5    56740.506     -1938258    4563534.5 
   18100        4.525    982.61655    281842.81   -1994680.5    56428.263   -1938252.2    4558303.1 
   18200         4.55    975.42992    283204.13   -1994274.7     56015.56   -1938259.1    4553071.8 
   18300        4.575    968.03307    284768.65   -1993856.4    55590.784   -1938265.6    4547840.4 
   18400          4.6    959.21304    285876.69   -1993353.5     55084.28   -1938269.3      4542609 
   18500        4.625     950.9694    287939.96   -1992882.3    54610.877   -1938271.4    4537377.6 
   18600         4.65    942.15878    289501.33   -1992380.5    54104.913   -1938275.6    4532146.2 
   18700        4.675    932.35978    291035.26   -1991823.2     53542.19     -1938281    4526914.8 
   18800          4.7    922.68842    292808.37   -1991266.5    52986.798   -1938279.7    4521683.5 
   18900        4.725    913.17854    294390.49   -1990715.7    52440.678   -1938275.1    4516452.1 
   19000         4.75    902.84349    296101.67     -1990121    51847.172   -1938273.8    4511220.7 
   19100        4.775     891.8231    297192.24   -1989491.6     51214.31   -1938277.2    4505989.3 
   19200          4.8    881.55717    299169.41     -1988907    50624.772   -1938282.2    4500757.9 
   19300        4.825    870.66438    300727.79   -1988280.5    49999.238   -1938281.3    4495526.5 
   19400         4.85    859.59583    302722.35   -1987639.9    49363.609   -1938276.3    4490295.2 
   19500        4.875    847.89849    304207.78   -1986961.6    48691.871   -1938269.8    4485063.8 
   19600          4.9    835.96957    305984.41     -1986274    48006.835   -1938267.2    4479832.4 
   19700        4.925    823.30026    307783.34   -1985548.6     47279.28   -1938269.3      4474601 
   19800         4.95    810.43576    309522.01   -1984813.4    46540.516   -1938272.8    4469369.6 
   19900        4.975    798.40224    311320.84   -1984118.6    45849.474   -1938269.1    4464138.2 
   20000            5    785.14688    313311.56   -1983353.5    45088.264   -1938265.2    4458906.9 
   20100        5.025    771.63879    315691.97   -1982575.4    44312.541   -1938262.8    4453675.5 
   20200         5.05    759.49556    317686.08   -1981872.9    43615.197   -1938257.7    4448444.1 
   20300        5.075    747.00121    320182.07   -1981154.3     42897.69   -1938256.7    4443212.7 
   20400          5.1    733.88897    322459.97   -1980394.9      42144.7   -1938250.2    4437981.3 
   20500        5.125     720.7714    324814.08   -1979643.6    41391.403   -1938252.2    4432749.9 
   20600         5.15    708.22294    327696.36   -1978928.2    40670.789   -1938257.4    4427518.6 
   20700        5.175    694.68146    330402.54   -1978157.2    39893.148     -1938264    4422287.2 
   20800          5.2    681.76505    333024.62   -1977416.1    39151.404   -1938264.7    4417055.8 
   20900        5.225    668.33603    335777.99   -1976646.1    38380.222   -1938265.9    4411824.4 
   21000         5.25    655.28813    338451.17   -1975896.1    37630.926   -1938265.1      4406593 
   21100        5.275    642.50559    341166.68   -1975159.8    36896.869   -1938262.9    4401361.6 
   21200          5.3      629.418    343772.52   -1974412.3    36145.294     -1938267    4396130.3 
   21300        5.325    616.91181    346279.92   -1973695.6    35427.107   -1938268.5    4390898.9 
   21400         5.35    604.91526    348617.88   -1972999.3    34738.187   -1938261.1    4385667.5 
   21500        5.375    593.59116    350434.98   -1972331.2    34087.883   -1938243.3    4380436.1 
   21600          5.4    582.79705    352694.55   -1971689.8    33468.015   -1938221.7    4375204.7 
   21700        5.425    572.29836    354426.23   -1971070.7    32865.111   -1938205.6    4369973.3 
   21800         5.45    562.15524    356354.59   -1970462.9    32282.627   -1938180.3      4364742 
   21900        5.475    553.54906    358053.81   -1969918.7    31788.404   -1938130.3    4359510.6 
   22000          5.5    545.02241    360118.56   -1969342.7    31298.748     -1938044    4354279.2 
   22100        5.525    537.62268    361751.11     -1968779    30873.807   -1937905.1    4349047.8 
   22200         5.55    532.97449    363626.34   -1968283.1    30606.878   -1937676.3    4343816.4 
   22300        5.575    529.45771    365989.93   -1967732.4    30404.921   -1937327.5      4338585 
   22400          5.6    528.29836    368034.72   -1967194.8    30338.344   -1936856.4    4333353.7 
   22500        5.625    528.72677    369904.46   -1966685.6    30362.946   -1936322.6    4328122.3 
   22600         5.65     529.3617     372551.5   -1966164.3    30399.408   -1935764.9    4322890.9 
   22700        5.675    529.31721    374498.08   -1965591.5    30396.853   -1935194.7    4317659.5 
   22800          5.7    529.22616     377038.2     -1965022    30391.624   -1934630.4    4312428.1 
   22900        5.725    529.24602    379648.05   -1964451.4    30392.764   -1934058.6    4307196.8 
   23000         5.75    528.84203    381922.33     -1963805    30369.565   -1933435.4    4301965.4 
   23100        5.775    529.35869    384539.47   -1963143.2    30399.235     -1932744      4296734 
   23200          5.8     529.5501    387069.12   -1962398.1    30410.227   -1931987.9    4291502.6 
   23300        5.825    531.94259     389380.8   -1961687.1    30547.619   -1931139.5    4286271.2 
   23400         5.85    532.58903    392217.76   -1960767.7    30584.742     -1930183    4281039.8 
   23500        5.875    535.90916    394995.14   -1959871.3    30775.405   -1929095.9    4275808.5 
   23600          5.9    538.08788     397965.7   -1958744.9    30900.522   -1927844.4    4270577.1 
   23700        5.925    544.09115    401281.79   -1957671.7    31245.269   -1926426.5    4265345.7 
   23800         5.95    547.45524    404731.84   -1956333.2    31438.457   -1924894.8    4260114.3 
   23900        5.975    551.14298     408172.2     -1954900    31650.231   -1923249.8    4254882.9 
   24000            6    551.55412    412313.04   -1953145.3    31673.841   -1921471.5    4249651.5 
   24100        6.025    553.07409    416538.14   -1951305.7    31761.128   -1919544.6    4244420.2 
   24200         6.05    555.35412    421309.38     -1949284    31892.062   -1917391.9    4239188.8 
   24300        6.075    559.09564    425951.04   -1947103.1    32106.925   -1914996.2    4233957.4 
   24400          6.1    565.42434       430537   -1944798.3     32470.36   -1912327.9      4228726 
   24500        6.125    574.36511    435763.65   -1942381.6    32983.798   -1909397.8    4223494.6 
   24600         6.15    585.19153    440811.82     -1939936    33605.521   -1906330.5    4218263.2 
   24700        6.175     595.7444    446085.34   -1937399.6    34211.536   -1903188.1    4213031.9 
   24800          6.2     607.0647     451631.3   -1934855.2    34861.622   -1899993.6    4207800.5 
   24900        6.225    619.81108    457052.25   -1932308.4    35593.602   -1896714.8    4202569.1 
   25000         6.25     632.9822    462611.93     -1929695    36349.974     -1893345    4197337.7 
   25100        6.275     647.1745    467985.64   -1927085.3    37164.988   -1889920.3    4192106.3 
   25200          6.3    662.22016    473898.79     -1924445    38029.009     -1886416    4186874.9 
   25300        6.325    677.39715    479315.98   -1921790.8     38900.57   -1882890.2    4181643.6 
   25400         6.35    692.18678    484859.19     -1919114    39749.888   -1879364.1    4176412.2 
   25500        6.375    707.22302    490765.52   -1916420.5    40613.367   -1875807.1    4171180.8 
   25600          6.4    722.30504    496327.79   -1913706.9    41479.475   -1872227.5    4165949.4 
   25700        6.425    739.84973    502227.48   -1911080.9    42487.006   -1868593.9      4160718 
   25800         6.45     757.1964    507520.54   -1908406.7    43483.165   -1864923.5    4155486.6 
   25900        6.475    776.48445    513242.24   -1905830.2    44590.811   -1861239.4    4150255.3 
   26000          6.5    795.87405    518754.74   -1903229.6    45704.288   -1857525.3    4145023.9 
   26100        6.525    816.75003    524725.02   -1900710.4    46903.124   -1853807.3    4139792.5 
   26200         6.55    838.30398    530337.31   -1898208.8    48140.892   -1850067.9    4134561.1 
   26300        6.575    859.36853    536069.33   -1895634.3    49350.556   -1846283.7    4129329.7 
   26400          6.6    882.05371    542149.01   -1893117.8    50653.287   -1842464.6    4124098.3 
   26500        6.625    903.83661    547990.69   -1890545.9    51904.204   -1838641.7      4118867 
   26600         6.65    924.68879    554393.87   -1887911.7    53101.672     -1834810    4113635.6 
   26700        6.675    944.77358    560423.41   -1885203.2    54255.072   -1830948.1    4108404.2 
   26800          6.7    965.64169    567010.08   -1882519.3    55453.455   -1827065.9    4103172.8 
   26900        6.725    987.37591    572945.82     -1879865    56701.576   -1823163.4    4097941.4 
   27000         6.75     1007.861    579662.57   -1877149.5    57877.961   -1819271.5      4092710 
   27100        6.775    1034.9426    585051.33   -1874810.7    59433.167   -1815377.6    4087478.7 
   27200          6.8    1067.1164    589792.84   -1872763.1    61280.797   -1811482.3    4082247.3 
   27300        6.825    1096.8581    594077.77   -1870574.8    62988.757     -1807586    4077015.9 
   27400         6.85    1124.7136    598970.59   -1868275.7    64588.401   -1803687.3    4071784.5 
   27500        6.875    1158.4732    604113.67   -1866308.7    66527.102   -1799781.6    4066553.1 
   27600          6.9    1187.0144    608704.77   -1864068.8    68166.124   -1795902.6    4061321.7 
   27700        6.925    1219.9686    613527.07   -1862097.2    70058.565   -1792038.6    4056090.4 
   27800         6.95    1247.0393    618109.36   -1859781.5    71613.145   -1788168.4      4050859 
   27900        6.975    1265.9005    622915.15     -1856995    72696.275   -1784298.7    4045627.6 
   28000            7    1292.3659    628555.47   -1854641.7    74216.094   -1780425.6    4040396.2 
   28100        7.025    1316.7074    634123.35   -1852176.1    75613.945   -1776562.2    4035164.8 
   28200         7.05     1343.862    638638.05   -1849864.3    77173.334     -1772691    4029933.4 
   28300        7.075    1369.9609    643611.27   -1847446.4    78672.108   -1768774.3    4024702.1 
   28400          7.1    1396.3288    648424.19   -1845035.8    80186.324   -1764849.5    4019470.7 
   28500        7.125     1425.092    653372.01   -1842719.3    81838.092   -1760881.2    4014239.3 
   28600         7.15    1453.2458    658333.56     -1840323     83454.87   -1756868.1    4009007.9 
   28700        7.175    1482.1786    662753.04   -1837951.3     85116.38   -1752834.9    4003776.5 
   28800          7.2    1510.0902    667529.62   -1835481.8    86719.248   -1748762.5    3998545.1 
   28900        7.225    1541.2665    671964.82   -1833222.8    88509.592   -1744713.2    3993313.8 
   29000         7.25    1569.1206    677224.56   -1830813.8    90109.158   -1740704.6    3988082.4 
   29100        7.275    1599.2326    682010.22   -1828549.4    91838.385     -1736711      3982851 
   29200          7.3    1626.6494    686750.21   -1826158.9    93412.839   -1732746.1    3977619.6 
   29300        7.325    1656.6436    692211.66   -1823979.7    95135.298   -1728844.4    3972388.2 
   29400         7.35     1683.221    697388.92   -1821707.1    96661.546   -1725045.6    3967156.8 
   29500        7.375      1706.36    703128.41   -1819351.4    97990.339   -1721361.1    3961925.5 
   29600          7.4    1728.2853    708484.16     -1817101    99249.433   -1717851.6    3956694.1 
   29700        7.425    1744.0555    714534.97   -1814637.2    100155.06   -1714482.2    3951462.7 
   29800         7.45    1756.0239    720615.81   -1812138.8    100842.37   -1711296.4    3946231.3 
   29900        7.475    1765.5391     725835.8   -1809627.4    101388.79   -1708238.6    3940999.9 
   30000          7.5    1775.4077     731411.6   -1807181.5    101955.51     -1705226    3935768.5 
   30100        7.525    1782.9969    736657.65     -1804619    102391.33   -1702227.7    3930537.2 
   30200         7.55    1794.7955    742003.35   -1802251.4    103068.88   -1699182.5    3925305.8 
   30300        7.575    1807.5487    747040.24   -1799903.2    103801.26   -1696101.9    3920074.4 
   30400          7.6    1823.2767    752334.19   -1797735.9    104704.46   -1693031.4      3914843 
   30500        7.625     1839.817    757590.22   -1795680.8    105654.31   -1690026.5    3909611.6 
   30600         7.65    1853.3456    762156.42     -1793558    106431.21   -1687126.8    3904380.2 
   30700        7.675    1865.3233     767791.4   -1791382.2    107119.05   -1684263.2    3899148.9 
   30800          7.7    1877.8767    774773.42   -1789251.4    107839.95   -1681411.5    3893917.5 
   30900        7.725    1896.7702    784921.11   -1787308.3    108924.94   -1678383.4    3888686.1 
   31000         7.75    1915.5994    796290.73     -1785070    110006.23   -1675063.8    3883454.7 
   31100        7.775    1937.4721    805379.63     -1782899    111262.31   -1671636.7    3878223.3 
   31200          7.8    1963.2593    810733.83   -1780993.1    112743.17   -1668249.9    3872991.9 
   31300        7.825    1985.4442    815570.14   -1778967.6    114017.18   -1664950.4    3867760.6 
   31400         7.85    2006.9716    819920.82   -1777043.8    115253.42   -1661790.4    3862529.2 
   31500        7.875    2030.8557    825089.54   -1775274.2       116625   -1658649.2    3857297.8 
   31600          7.9    2054.7137     829248.5   -1773481.6    117995.09   -1655486.5    3852066.4 
   31700        7.925    2084.7331    833613.43   -1771901.2       119719   -1652182.2      3846835 
   31800         7.95    2117.7345    837119.27   -1770453.9    121614.15   -1648839.7    3841603.6 
   31900        7.975    2150.6276    841756.99     -1769010    123503.09   -1645506.9    3836372.3 
   32000            8     2187.138    846050.29   -1767733.9    125599.76   -1642134.1    3831140.9 
   32100        8.025    2225.5551    849469.46   -1766631.1    127805.92   -1638825.2    3825909.5 
   32200         8.05    2261.2223    852880.99   -1765452.3    129854.16   -1635598.1    3820678.1 
   32300        8.075    2300.6987    857999.52   -1764462.2    132121.15   -1632341.1    3815446.7 
   32400          8.1    2343.6607    862876.05   -1763574.6    134588.31   -1628986.3    3810215.3 
   32500        8.125    2387.1357    868024.34   -1762546.8    137084.93   -1625461.9      3804984 
   32600         8.15    2431.7487    872859.57   -1761606.3     139646.9   -1621959.4    3799752.6 
   32700        8.175    2469.9717    877924.04   -1760409.7    141841.91   -1618567.8    3794521.2 
   32800          8.2    2506.7399    884230.84   -1759166.9    143953.38   -1615213.5    3789289.8 
   32900        8.225    2543.0515    890727.16   -1757834.5    146038.64   -1611795.8    3784058.4 
   33000         8.25    2577.2316    897272.99   -1756278.5    148001.48     -1608277      3778827 
   33100        8.275     2612.022    903667.07   -1754661.2    149999.37   -1604661.8    3773595.7 
   33200          8.3    2641.5961    910508.66   -1752792.5    151697.71   -1601094.8    3768364.3 
   33300        8.325    2670.8321    918184.05   -1750975.3    153376.63   -1597598.7    3763132.9 
   33400         8.35    2698.0648    925260.25   -1749076.7    154940.51   -1594136.2    3757901.5 
   33500        8.375    2725.1293    932630.91   -1747087.8    156494.73   -1590593.1    3752670.1 
   33600          8.4    2749.4102    940049.15   -1744861.1     157889.1     -1586972    3747438.7 
   33700        8.425    2773.1558    947772.75   -1742672.3    159252.73   -1583419.6    3742207.4 
   33800         8.45    2798.0764    955770.44   -1740605.5    160683.83   -1579921.7      3736976 
   33900        8.475    2816.1921    964585.82   -1738142.8    161724.15   -1576418.7    3731744.6 
   34000          8.5    2839.2782    973444.85     -1735882    163049.91   -1572832.1    3726513.2 
   34100        8.525    2859.0322    982149.13     -1733426    164184.31   -1569241.7    3721281.8 
   34200         8.55    2878.5966    990782.82   -1730980.7    165307.83   -1565672.9    3716050.4 
   34300        8.575    2898.2931    999627.99   -1728527.5    166438.93   -1562088.6    3710819.1 
   34400          8.6    2919.1434    1007375.5   -1726022.2    167636.29   -1558385.9    3705587.7 
   34500        8.625    2942.1205    1014493.7   -1723542.9    168955.78   -1554587.1    3700356.3 
   34600         8.65     2971.649    1020728.2   -1721447.3     170651.5   -1550795.8    3695124.9 
   34700        8.675     2997.698    1025987.5   -1719122.1     172147.4   -1546974.7    3689893.5 
   34800          8.7    3027.7001    1031566.4   -1716971.9    173870.32   -1543101.5    3684662.1 
   34900        8.725    3046.1548    1038101.7   -1714072.2    174930.11     -1539142    3679430.8 
   35000         8.75    3058.5718      1043323   -1710827.8    175643.18   -1535184.6    3674199.4 
   35100        8.775    3071.4678    1048139.5   -1707652.6    176383.75   -1531268.9      3668968 
   35200          8.8    3081.6181    1054049.6     -1704370    176966.65   -1527403.3    3663736.6 
   35300        8.825    3089.2934    1059825.1   -1700896.3    177407.41   -1523488.9    3658505.2 
   35400         8.85    3094.9366    1066238.4   -1697278.6    177731.48   -1519547.1    3653273.8 
   35500        8.875    3099.3309    1073040.9   -1693672.6    177983.83   -1515688.7    3648042.5 
   35600          8.9    3100.8545    1079442.7   -1689961.5    178071.33   -1511890.2    3642811.1 
   35700        8.925    3102.2178    1085141.9   -1686261.6    178149.62     -1508112    3637579.7 
   35800         8.95     3099.546    1091234.9     -1682383    177996.18   -1504386.8    3632348.3 
   35900        8.975    3093.4272    1098541.6   -1678363.6     177644.8   -1500718.8    3627116.9 
   36000            9    3082.7142    1105904.1   -1674140.5    177029.59   -1497110.9    3621885.5 
   36100        9.025    3067.7698    1112504.3   -1669779.3    176171.39   -1493607.9    3616654.2 
   36200         9.05    3052.7471    1120355.4   -1665430.7    175308.69     -1490122    3611422.8 
   36300        9.075    3032.9833    1129793.3   -1660831.6    174173.72   -1486657.8    3606191.4 
   36400          9.1     3014.106    1138004.4   -1656301.3    173089.66   -1483211.6      3600960 
   36500        9.125    2993.5388    1146401.3   -1651770.5    171908.56   -1479861.9    3595728.6 
   36600         9.15    2970.3045    1154334.9   -1647095.3    170574.29     -1476521    3590497.3 
   36700        9.175    2947.3625    1163971.7   -1642456.5    169256.81   -1473199.7    3585265.9 
   36800          9.2    2920.9336    1171634.1     -1637735    167739.09   -1469995.9    3580034.5 
   36900        9.225    2893.5222    1179546.9   -1633039.5    166164.95   -1466874.6    3574803.1 
   37000         9.25    2865.3886    1187588.6   -1628347.8    164549.34   -1463798.4    3569571.7 
   37100        9.275      2831.86      1196070   -1623433.1     162623.9   -1460809.2    3564340.3 
   37200          9.3    2798.7157      1204830   -1618581.2    160720.54   -1457860.6      3559109 
   37300        9.325    2763.1785    1214418.2   -1613656.7    158679.77   -1454976.9    3553877.6 
   37400         9.35    2723.6737    1227877.2   -1608577.7    156411.14   -1452166.5    3548646.2 
   37500        9.375      2687.39      1240991     -1603718    154327.49   -1449390.5    3543414.8 
   37600          9.4    2645.9431    1252149.2   -1598587.2    151947.34   -1446639.9    3538183.4 
   37700        9.425    2603.2854    1262973.7   -1593427.7    149497.66   -1443930.1      3532952 
   37800         9.45    2558.1896    1270057.2     -1588243    146907.96     -1441335    3527720.7 
   37900        9.475      2513.23    1279361.4   -1583129.7    144326.08   -1438803.6    3522489.3 
   38000          9.5    2466.8559      1289797   -1577965.7    141662.99   -1436302.7    3517257.9 
   38100        9.525    2423.5098    1299917.3   -1573067.1    139173.77   -1433893.4    3512026.5 
   38200         9.55    2377.4847    1311467.9   -1568089.6     136530.7   -1431558.9    3506795.1 
   38300        9.575    2336.1572    1321828.2   -1563390.9    134157.41   -1429233.5    3501563.7 
   38400          9.6    2296.6285    1332988.7   -1558848.7    131887.41   -1426961.2    3496332.4 
   38500        9.625    2257.6013    1341430.5   -1554353.9    129646.22   -1424707.6      3491101 
   38600         9.65    2221.4715      1352237   -1550064.5    127571.41   -1422493.1    3485869.6 
   38700        9.675    2187.4891    1362090.4   -1545932.1    125619.91   -1420312.2    3480638.2 
   38800          9.7    2152.0167    1372063.7   -1541749.4    123582.86   -1418166.6    3475406.8 
   38900        9.725    2114.5518    1382106.7   -1537492.3    121431.38   -1416060.9    3470175.4 
   39000         9.75    2077.8833    1392051.3   -1533286.5    119325.64   -1413960.9    3464944.1 
   39100        9.775     2039.717    1402851.5   -1528988.6    117133.87   -1411854.7    3459712.7 
   39200          9.8    1999.6043    1411076.1   -1524630.4    114830.34   -1409800.1    3454481.3 
   39300        9.825     1959.516    1421901.8   -1520261.7    112528.21   -1407733.5    3449249.9 
   39400         9.85    1917.6905    1431691.6     -1515840    110126.32   -1405713.7    3444018.5 
   39500        9.875    1872.9876    1441847.3   -1511236.8    107559.19   -1403677.6    3438787.1 
   39600          9.9    1829.5948      1453679   -1506671.8    105067.29   -1401604.5    3433555.8 
   39700        9.925    1781.5177    1464432.8   -1501852.3    102306.39   -1399545.9    3428324.4 
   39800         9.95    1737.5461    1474621.9   -1497208.1    99781.248   -1397426.9      3423093 
   39900        9.975    1698.5562    1483131.2   -1492812.2    97542.194     -1395270    3417861.6 
   40000           10    1659.6483    1491934.7   -1488331.8    95307.847   -1393023.9    3412630.2 
   40100       10.025    1625.7349    1499767.7   -1484048.1    93360.321   -1390687.8    3407398.8 
   40200        10.05    1590.5431    1508458.5   -1479586.3    91339.377   -1388246.9    3402167.5 
   40300       10.075    1568.0559    1515770.9   -1475710.7    90048.015   -1385662.6    3396936.1 
   40400         10.1    1547.2493    1522934.7     -1471824    88853.165   -1382970.9    3391704.7 
   40500       10.125    1529.4325    1530762.4   -1468055.5    87830.007   -1380225.5    3386473.3 
   40600        10.15    1512.5801    1538724.7   -1464362.7    86862.235   -1377500.5    3381241.9 
   40700       10.175    1500.8247      1544874     -1460880    86187.158   -1374692.8    3376010.5 
   40800         10.2    1489.2967    1552402.9   -1457330.5    85525.148   -1371805.4    3370779.2 
   40900       10.225    1480.0512    1559406.2   -1453851.1    84994.211   -1368856.9    3365547.8 
   41000        10.25    1469.7558    1565263.8   -1450174.9    84402.983     -1365772    3360316.4 
   41100       10.275    1469.4124    1573596.4   -1446995.3     84383.26     -1362612      3355085 
   41200         10.3    1469.6654    1578615.7   -1443781.5    84397.793   -1359383.7    3349853.6 
   41300       10.325    1472.2744      1585201   -1440616.8    84547.617   -1356069.2    3344622.2 
   41400        10.35    1475.5387    1591163.6   -1437424.6    84735.076   -1352689.5    3339390.9 
   41500       10.375    1482.4129    1596128.8   -1434388.4    85129.835   -1349258.6    3334159.5 
   41600         10.4    1486.6651    1602997.1   -1431200.3    85374.025   -1345826.3    3328928.1 
   41700       10.425    1488.7552      1609190   -1427847.5     85494.05   -1342353.5    3323696.7 
   41800        10.45    1492.3266    1615739.7   -1424572.7    85699.146   -1338873.5    3318465.3 
   41900       10.475    1490.2417    1623662.9   -1420914.5    85579.414   -1335335.1    3313233.9 
   42000         10.5    1488.5913    1631353.1     -1417257    85484.641   -1331772.3    3308002.6 
   42100       10.525    1481.7149    1639038.7   -1413311.9    85089.751   -1328222.2    3302771.2 
   42200        10.55    1469.1359    1649210.3   -1409016.4    84367.383     -1324649    3297539.8 
   42300       10.575    1458.1683    1658016.4   -1404796.2     83737.55   -1321058.6    3292308.4 
   42400         10.6    1439.6389    1668078.5     -1400106    82673.471   -1317432.6      3287077 
   42500       10.625    1427.4782    1675816.9   -1395734.4    81975.123   -1313759.3    3281845.6 
   42600        10.65    1403.8274    1683418.6   -1390585.5    80616.943   -1309968.6    3276614.3 
   42700       10.675    1391.7917    1690701.8     -1385899    79925.771   -1305973.3    3271382.9 
   42800         10.7    1378.9266    1698875.1     -1380774    79186.978     -1301587    3266151.5 
   42900       10.725    1375.6973    1704567.7   -1375699.9    79001.529   -1296698.4    3260920.1 
   43000        10.75    1372.5319    1711461.7   -1370179.7    78819.751   -1291359.9    3255688.7 
   43100       10.775    1374.6422    1718581.2   -1364705.3    78940.938   -1285764.4    3250457.3 
   43200         10.8    1373.3488    1724995.9   -1358966.2    78866.661   -1280099.6      3245226 
   43300       10.825    1370.5218    1730574.5   -1353083.4    78704.316   -1274379.1    3239994.6 
   43400        10.85    1370.3224    1737471.1     -1346945    78692.866   -1268252.1    3234763.2 
   43500       10.875     1382.468      1744622   -1340773.5    79390.344   -1261383.2    3229531.8 
   43600         10.9    1395.3312    1754380.4   -1334104.8    80129.037   -1253975.7    3224300.4 
   43700       10.925     1404.279      1766720   -1327039.3    80642.877   -1246396.4      3219069 
   43800        10.95      1413.99    1778714.9   -1319763.9    81200.542   -1238563.4    3213837.7 
   43900       10.975    1437.2461    1791916.1   -1312713.3    82536.062   -1230177.3    3208606.3 
   44000           11     1465.492    1805361.3   -1305399.3    84158.129   -1221241.2    3203374.9 
   44100       11.025    1498.1653    1821077.9   -1298068.6    86034.443   -1212034.1    3198143.5 
   44200        11.05    1527.8676    1836646.4   -1290689.6    87740.138   -1202949.4    3192912.1 
   44300       11.075    1560.2854    1852814.4   -1283164.6     89601.78   -1193562.9    3187680.7 
   44400         11.1    1595.3629    1870310.2   -1275585.8    91616.162   -1183969.6    3182449.4 
   44500       11.125    1630.0636    1887157.8   -1267966.7    93608.903   -1174357.8      3177218 
   44600        11.15    1659.9944    1905551.4   -1260188.5    95327.723   -1164860.8    3171986.6 
   44700       11.175    1681.4232    1922415.3   -1252007.9    96558.307   -1155449.6    3166755.2 
   44800         11.2    1704.8146    1940769.1   -1243815.8    97901.594   -1145914.2    3161523.8 
   44900       11.225    1733.0612    1957707.8   -1235793.2    99523.697   -1136269.5    3156292.4 
   45000        11.25    1750.6775    1974573.1   -1227208.2    100535.34   -1126672.8    3151061.1 
   45100       11.275    1777.7627      1992766   -1219117.6    102090.75   -1117026.8    3145829.7 
   45200         11.3    1800.5144      2008779   -1210748.1     103397.3   -1107350.8    3140598.3 
   45300       11.325    1834.9126    2025417.3   -1202930.2    105372.67   -1097557.5    3135366.9 
   45400        11.35    1869.2406    2043179.3   -1194998.9    107344.01   -1087654.9    3130135.5 
   45500       11.375    1913.5369    2059693.1   -1187623.9    109887.79   -1077736.1    3124904.1 
   45600         11.4    1960.2089    2074534.1   -1180270.2       112568   -1067702.2    3119672.8 
   45700       11.425    2004.4089    2089489.8   -1172662.9    115106.25   -1057556.6    3114441.4 
   45800        11.45    2058.3312    2106740.9   -1165590.2    118202.82   -1047387.4      3109210 
   45900       11.475    2102.8263    2121768.8   -1157909.8    120758.03   -1037151.8    3103978.6 
   46000         11.5    2150.1212    2136840.3   -1150338.2    123474.01   -1026864.2    3098747.2 
   46100       11.525    2195.3605    2153129.2     -1142435    126071.94   -1016363.1    3093515.8 
   46200        11.55    2240.6778      2167447   -1134524.1    128674.36   -1005849.7    3088284.5 
   46300       11.575    2289.7557    2182722.8   -1126807.6    131492.74   -995314.86    3083053.1 
   46400         11.6    2331.1988    2197816.2   -1118676.9    133872.67   -984804.23    3077821.7 
   46500       11.625    2371.7113      2213190   -1110631.2    136199.16   -974432.07    3072590.3 
   46600        11.65    2410.1106      2228528   -1102551.6     138404.3   -964147.29    3067358.9 
   46700       11.675    2447.5164    2245601.6   -1094703.2    140552.38   -954150.78    3062127.5 
   46800         11.7    2480.9033    2260598.2   -1086751.4    142469.68   -944281.71    3056896.2 
   46900       11.725    2515.4889    2276481.6   -1079005.3    144455.81   -934549.46    3051664.8 
   47000        11.75    2544.8538    2293066.5   -1071220.9    146142.13   -925078.73    3046433.4 
   47100       11.775    2579.6117    2309953.1   -1063853.7    148138.16   -915715.54      3041202 
   47200         11.8    2609.5068    2327833.3     -1056507    149854.93   -906652.07    3035970.6 
   47300       11.825    2638.2721    2345103.3   -1049320.9    151506.82   -897814.08    3030739.2 
   47400        11.85    2676.4752    2362744.7   -1042824.3    153700.69   -889123.59    3025507.9 
   47500       11.875    2707.7046    2380197.3   -1036136.4    155494.09   -880642.33    3020276.5 
   47600         11.9    2738.6591    2399416.6   -1029512.6     157271.7   -872240.89    3015045.1 
   47700       11.925    2781.4158    2417613.8   -1023539.2    159727.07   -863812.16    3009813.7 
   47800        11.95    2819.6902    2434170.7   -1017266.9    161925.03   -855341.89    3004582.3 
   47900       11.975    2863.6835    2450727.8   -1011303.3    164451.42   -846851.87    2999350.9 
   48000           12    2908.6626    2464993.9   -1005294.6    167034.41   -838260.18    2994119.6 
   48100       12.025    2967.5115    2480073.1   -1000006.7     170413.9   -829592.83    2988888.2 
   48200        12.05    3013.4599    2494628.7   -993727.42    173052.56   -820674.86    2983656.8 
   48300       12.075    3069.3062      2510348   -987903.44    176259.61   -811643.83    2978425.4 
   48400         12.1    3132.4034    2525844.2   -982255.61    179883.07   -802372.54      2973194 
   48500       12.125    3196.4661    2543498.9   -976562.04    183561.97   -793000.08    2967962.6 
   48600        12.15     3252.929    2559365.5   -970295.09    186804.44   -783490.65    2962731.3 
   48700       12.175    3312.0813    2574798.4   -964138.18    190201.35   -773936.84    2957499.9 
   48800         12.2    3362.1471    2592785.4   -957310.18    193076.45   -764233.73    2952268.5 
   48900       12.225    3411.8865      2608382   -950405.76    195932.81   -754472.94    2947037.1 
   49000        12.25    3459.4435    2626233.8   -943321.48    198663.85   -744657.63    2941805.7 
   49100       12.275    3504.7279    2642413.3   -936006.05    201264.37   -734741.67    2936574.3 
   49200         12.3    3541.4512    2660970.4   -928248.27    203373.27      -724875      2931343 
   49300       12.325    3585.5921      2677000   -920787.99    205908.12   -714879.87    2926111.6 
   49400        12.35    3628.5216    2695916.1   -913160.27    208373.42   -704786.85    2920880.2 
   49500       12.375    3657.6808    2712348.2   -904803.33    210047.93    -694755.4    2915648.8 
   49600         12.4     3688.824      2731505   -896522.29    211836.38   -684685.91    2910417.4 
   49700       12.425    3707.7467    2752203.3   -887558.06    212923.04   -674635.02    2905186.1 
   49800        12.45    3722.9913    2771100.6   -878354.49    213798.49      -664556    2899954.7 
   49900       12.475    3734.3769    2790650.7   -868997.97    214452.32   -654545.65    2894723.3 
   50000         12.5    3741.6776    2809565.1   -859405.32    214871.58   -644533.75    2889491.9 
Loop time of 2532.93 on 96 procs for 50000 steps with 444272 atoms

Performance: 0.426 ns/day, 56.287 hours/ns, 19.740 timesteps/s
100.0% CPU use with 96 MPI tasks x 1 OpenMP threads

MPI task timing breakdown:
Section |  min time  |  avg time  |  max time  |%varavg| %total
---------------------------------------------------------------
Pair    | 1145.8     | 1429.8     | 2420       |1016.9 | 56.45
Neigh   | 14.018     | 16.481     | 18.172     |  29.8 |  0.65
Comm    | 45.304     | 382.28     | 1140.6     |1916.5 | 15.09
Output  | 9.3033     | 9.3043     | 9.3272     |   0.1 |  0.37
Modify  | 37.363     | 690.71     | 1163.8     |1938.5 | 27.27
Other   |            | 4.324      |            |       |  0.17

Nlocal:        4627.83 ave        4814 max        4338 min
Histogram: 9 3 0 4 11 8 22 16 9 14
Nghost:        13210.5 ave       13773 max       12464 min
Histogram: 3 4 14 3 6 22 16 8 5 15
Neighs:         0.00000 ave           0 max           0 min
Histogram: 96 0 0 0 0 0 0 0 0 0
FullNghs:  1.56417e+06 ave 1.79415e+06 max      986302 min
Histogram: 12 0 0 0 0 0 24 11 29 20

Total # of neighbors = 1.5016018e+08
Ave neighs/atom = 337.99155
Neighbor list builds = 526
Dangerous builds = 0
Total wall time: 0:42:18
