LAMMPS (29 Sep 2021)
  using 1 OpenMP thread(s) per MPI task
Reading restart file ...
  restart file = 29 Sep 2021, LAMMPS = 29 Sep 2021
  restoring atom style atomic from restart
  orthogonal box = (-0.35443375 -0.31641657 0.0000000) to (101.42710 101.38909 591.78500)
  3 by 2 by 16 MPI processor grid
  pair style hybrid/overlay stores no restart info
  437844 atoms
  read_restart CPU = 0.180 seconds
Resetting global fix info from restart file:
  fix style: npt, fix ID: 2

CITE-CITE-CITE-CITE-CITE-CITE-CITE-CITE-CITE-CITE-CITE-CITE-CITE

Your simulation uses code contributions which should be cited:
- @article{cjiang2012
The log file lists these citations in BibTeX format.

CITE-CITE-CITE-CITE-CITE-CITE-CITE-CITE-CITE-CITE-CITE-CITE-CITE

All restart file global fix info was re-assigned
Unused restart file peratom fix info:
  fix style: STORE, fix ID: spatialbins_COMPUTE_STORE
Neighbor list info ...
  update every 1 steps, delay 10 steps, check yes
  max neighbors/atom: 2000, page size: 100000
  master list distance cutoff = 8.28721
  ghost atom cutoff = 8.28721
  binsize = 4.143605, bins = 25 25 143
  3 neighbor lists, perpetual/occasional/extra = 3 0 0
  (1) pair eam/alloy, perpetual, skip from (3)
      attributes: half, newton on
      pair build: skip
      stencil: none
      bin: none
  (2) pair edip/multi, perpetual
      attributes: full, newton on
      pair build: full/bin/atomonly
      stencil: full/bin/3d
      bin: standard
  (3) neighbor class addition, perpetual, half/full from (2)
      attributes: half, newton on
      pair build: halffull/newton
      stencil: none
      bin: none
Setting up Verlet run ...
  Unit style    : metal
  Current step  : 11000087
  Time step     : 0.0001
Per MPI rank memory allocation (min/avg/max) = 5.152 | 11.73 | 17.25 Mbytes
Step Time Temp PotEng E_pair TotEng Press Volume Lx Ly Lz CPULeft 
11000087            0    299.92745   -1881117.1   -1881117.1   -1864142.5     340.4531    6126005.8    101.78154     101.7055      591.785            0 
11010000       0.9913    300.10169   -1881101.8   -1881101.8   -1864117.4    62.087283    6127002.1    101.78576    101.71783      591.785    32733.787 
11020000       1.9913    299.88926     -1881127     -1881127   -1864154.5    -85.88433    6127599.9    101.78514    101.72837      591.785    32457.249 
11030000       2.9913    300.35632   -1881168.1   -1881168.1   -1864169.3   -143.41083      6126011    101.77373    101.71339      591.785    32133.874 
11040000       3.9913    300.25199     -1881156     -1881156     -1864163   -26.408031    6127453.2    101.78802    101.72305      591.785    31851.317 
11050000       4.9913    300.01556   -1881155.1   -1881155.1   -1864175.6   -8.2426301    6127253.9    101.79448    101.71328      591.785    31513.666 
11060000       5.9913    299.83773   -1881123.2   -1881123.2   -1864153.7   -11.372371    6128301.8    101.79569    101.72947      591.785    31179.005 
11070000       6.9913    299.84482   -1881134.9   -1881134.9   -1864164.9    266.99866    6127709.5    101.79107    101.72426      591.785    30848.045 
11080000       7.9913     300.1164   -1881128.5   -1881128.5   -1864143.2   -65.038853    6128281.8    101.80033    101.72451      591.785    30516.402 
11090000       8.9913    300.01604   -1881128.4   -1881128.4   -1864148.8    255.15444      6126981    101.78258    101.72065      591.785    30186.319 
11100000       9.9913     299.9861   -1881148.9   -1881148.9     -1864171    237.00751    6128459.4    101.78997    101.73781      591.785    29855.398 
11110000      10.9913    300.07841   -1881131.8   -1881131.8   -1864148.6   -414.14981    6127408.1    101.79828    101.71205      591.785    29524.316 
11120000      11.9913    299.92807   -1881126.9   -1881126.9   -1864152.3    48.865512    6128630.2    101.80317    101.72746      591.785    29194.228 
11130000      12.9913    299.99457   -1881112.3   -1881112.3   -1864133.9    213.84574      6127010    101.79273    101.71099      591.785    28862.028 
11140000      13.9913    300.27595   -1881125.8   -1881125.8   -1864131.5   -408.02181    6127550.9    101.78815    101.72455      591.785    28529.452 
11150000      14.9913    299.82422   -1881127.2   -1881127.2   -1864158.5    21.092386    6127379.7    101.78485      101.725      591.785    28197.497 
11160000      15.9913    299.74151   -1881127.2   -1881127.2   -1864163.1   -10.654648    6126282.9    101.78095    101.71069      591.785    27864.499 
11170000      16.9913    299.95696   -1881115.7   -1881115.7   -1864139.4   -74.730303    6126719.8    101.77761    101.72128      591.785    27532.541 
11180000      17.9913    299.83538   -1881140.3   -1881140.3   -1864170.9   -58.494553    6125571.8    101.77563     101.7042      591.785    27199.984 
11190000      18.9913    299.88266     -1881136     -1881136     -1864164    151.54379    6125707.6    101.77884    101.70325      591.785    26867.099 
11200000      19.9913    299.94339   -1881094.3   -1881094.3   -1864118.9    129.45792    6125889.9    101.77957    101.70554      591.785    26536.265 
11210000      20.9913    300.00325   -1881087.2   -1881087.2   -1864108.3    474.16632    6125881.8    101.77445    101.71053      591.785    26203.476 
11220000      21.9913    299.76027   -1881115.5   -1881115.5   -1864150.4   -524.09476    6125984.2    101.78017    101.70651      591.785    25871.662 
11230000      22.9913    299.88895   -1881120.4   -1881120.4     -1864148   -61.235488    6126673.9    101.78157    101.71656      591.785    25540.423 
11240000      23.9913     300.2146   -1881123.3   -1881123.3   -1864132.4    136.33975    6125450.4     101.7715    101.70631      591.785     25207.85 
11250000      24.9913    300.03412   -1881155.3   -1881155.3   -1864174.7    15.172935    6125479.6    101.77029    101.70801      591.785    24874.895 
11260000      25.9913    300.21088   -1881151.2   -1881151.2   -1864160.6   -155.59271    6126694.4    101.77763    101.72084      591.785    24543.708 
11270000      26.9913    299.86504   -1881150.3   -1881150.3   -1864179.2    40.062871    6126331.8    101.78156    101.71089      591.785    24211.272 
11280000      27.9913    299.93552   -1881116.4   -1881116.4   -1864141.3    292.59939    6126856.4    101.78915    101.71202      591.785    23879.484 
11290000      28.9913    300.03024   -1881149.7   -1881149.7   -1864169.3   -332.30859    6126860.9    101.78388    101.71736      591.785    23547.545 
11300000      29.9913    300.20556   -1881098.3   -1881098.3     -1864108   -39.707807    6127146.1    101.78077     101.7252      591.785    23214.904 
11310000      30.9913    299.90698     -1881144     -1881144   -1864170.6    21.906412    6127145.5     101.7873    101.71867      591.785    22883.305 
11320000      31.9913      300.013   -1881123.8   -1881123.8   -1864144.3   -83.882907    6127285.6    101.79832    101.70997      591.785    22551.489 
11330000      32.9913    300.19623   -1881136.7   -1881136.7   -1864146.9    210.04199    6127404.2    101.78682    101.72344      591.785    22219.824 
11340000      33.9913    299.95358   -1881138.8   -1881138.8   -1864162.8    485.90729    6128101.8     101.7928    101.72904      591.785    21887.752 
11350000      34.9913    300.27254   -1881129.7   -1881129.7   -1864135.6    295.31317    6127719.6    101.79802    101.71748      591.785    21556.747 
11360000      35.9913    300.16209   -1881138.2   -1881138.2   -1864150.4   -136.75688    6128071.3     101.7992    101.72214      591.785    21225.627 
11370000      36.9913    300.09864   -1881138.9   -1881138.9   -1864154.7    169.74703    6127298.2    101.78526    101.72324      591.785    20894.328 
11380000      37.9913    299.85229   -1881151.5   -1881151.5   -1864181.2    223.03957    6127935.2    101.79275    101.72632      591.785    20562.731 
11390000      38.9913    300.17722   -1881137.5   -1881137.5   -1864148.8   -281.86416    6128132.4    101.79925    101.72311      591.785    20231.523 
11400000      39.9913    300.12547   -1881146.5   -1881146.5   -1864160.7    59.320563    6127704.3    101.78976    101.72548      591.785    19900.048 
11410000      40.9913    299.92534   -1881130.2   -1881130.2   -1864155.7    435.78592    6126852.1    101.78172    101.71937      591.785    19568.391 
11420000      41.9913    300.02639   -1881113.9   -1881113.9   -1864133.7   -169.67639    6127002.3    101.78648     101.7171      591.785    19236.859 
11430000      42.9913    299.94532   -1881144.5   -1881144.5   -1864168.9   -291.73013    6127583.9    101.79138    101.72187      591.785    18905.797 
11440000      43.9913     300.0608   -1881095.3   -1881095.3   -1864113.1   -158.03577    6126806.4    101.78402    101.71631      591.785     18573.89 
11450000      44.9913    299.91312     -1881154     -1881154   -1864180.2   -263.05726      6126560    101.78462    101.71162      591.785    18242.124 
11460000      45.9913    300.02152   -1881136.5   -1881136.5   -1864156.6    10.743969    6126112.2    101.77857    101.71024      591.785    17910.476 
11470000      46.9913    299.83612   -1881133.6   -1881133.6   -1864164.2    139.81824    6125900.6    101.77814    101.70715      591.785    17578.781 
11480000      47.9913    300.06847   -1881151.2   -1881151.2   -1864168.6   -322.93075    6125925.6    101.77667    101.70903      591.785    17246.496 
11490000      48.9913    300.14518   -1881113.4   -1881113.4   -1864126.5    347.36785    6126299.2    101.77409    101.71782      591.785    16914.593 
11500000      49.9913    300.00839   -1881104.3   -1881104.3   -1864125.1   -193.22635    6126159.3    101.78627    101.70332      591.785    16582.944 
11510000      50.9913     300.2484   -1881136.1   -1881136.1   -1864143.4    265.32058    6126190.3    101.78081    101.70929      591.785    16251.276 
11520000      51.9913    300.20044   -1881154.1   -1881154.1     -1864164    50.840537      6126065    101.78091    101.70711      591.785    15919.524 
11530000      52.9913    300.32482     -1881122     -1881122     -1864125    193.86658    6126468.4    101.78641    101.70832      591.785    15587.772 
11540000      53.9913    299.83468   -1881130.8   -1881130.8   -1864161.5   -221.61849    6126318.5    101.77691    101.71532      591.785    15256.268 
11550000      54.9913    300.23044   -1881129.9   -1881129.9   -1864138.1   -46.082062    6126660.5    101.78534    101.71257      591.785    14924.648 
11560000      55.9913    300.07781   -1881115.2   -1881115.2   -1864132.1    524.01288      6126950    101.78673    101.71599      591.785    14593.101 
11570000      56.9913    299.91746   -1881106.9   -1881106.9   -1864132.9   -6.3196522    6128026.6    101.79813    101.72247      591.785    14261.118 
11580000      57.9913    300.09659   -1881149.3   -1881149.3   -1864165.1    355.45918    6128048.8    101.78765    101.73331      591.785    13929.604 
11590000      58.9913     300.1593   -1881127.2   -1881127.2   -1864139.5     198.2893    6128282.5    101.79787    101.72698      591.785      13598.3 
11600000      59.9913    300.12347     -1881134     -1881134   -1864148.3    -293.3425    6128236.1    101.79706    101.72701      591.785    13266.859 
11610000      60.9913    300.10329   -1881141.2   -1881141.2   -1864156.7     165.0089    6126774.4    101.78521     101.7146      591.785    12935.354 
11620000      61.9913    300.01623   -1881122.9   -1881122.9   -1864143.2    -128.1833      6128265    101.79951    101.72504      591.785    12603.769 
11630000      62.9913    300.14682   -1881155.2   -1881155.2   -1864168.2    458.35451    6127785.9    101.79448    101.72212      591.785    12272.215 
11640000      63.9913    300.02648     -1881140     -1881140   -1864159.8    207.76623    6127374.5      101.796    101.71377      591.785    11940.449 
11650000      64.9913    300.27581   -1881095.8   -1881095.8   -1864101.5   -34.894777    6127343.2    101.78822    101.72102      591.785    11608.912 
11660000      65.9913    300.04752   -1881131.2   -1881131.2   -1864149.8   -28.885131    6127628.9    101.78571    101.72828      591.785    11277.227 
11670000      66.9913    299.64471   -1881162.6   -1881162.6   -1864204.1   -176.71185    6126938.6    101.78345    101.71908      591.785    10945.706 
11680000      67.9913    300.01858     -1881099     -1881099   -1864119.2   -397.77137    6127028.1    101.78282    101.72119      591.785    10614.172 
11690000      68.9913    300.15221   -1881146.1   -1881146.1   -1864158.8    141.02102    6126542.7    101.78834    101.70762      591.785    10282.536 
11700000      69.9913    299.89348   -1881140.4   -1881140.4   -1864167.7   -236.05848    6125947.5     101.7757    101.71036      591.785    9951.0241 
11710000      70.9913      299.888   -1881131.2   -1881131.2   -1864158.8    287.05216    6125700.5    101.77923    101.70274      591.785    9619.4178 
11720000      71.9913    299.68791   -1881123.7   -1881123.7   -1864162.6   -348.53154    6126370.7    101.77111    101.72198      591.785    9287.7472 
11730000      72.9913    299.95978   -1881139.9   -1881139.9   -1864163.5   -79.312982    6125578.2    101.77451    101.70542      591.785    8955.9622 
11740000      73.9913     299.8827   -1881139.4   -1881139.4   -1864167.3   -180.38048    6125676.1    101.78221    101.69936      591.785    8624.3664 
11750000      74.9913    300.23267   -1881128.2   -1881128.2   -1864136.3   -308.31117    6126102.9    101.78317    101.70548      591.785    8292.7767 
11760000      75.9913    299.81308   -1881149.9   -1881149.9   -1864181.8   -162.14374    6126318.5    101.77782     101.7144      591.785    7960.9419 
11770000      76.9913    300.13946   -1881122.3   -1881122.3   -1864135.7    254.30386    6125363.4    101.77296    101.70341      591.785    7629.3202 
11780000      77.9913    299.84328     -1881162     -1881162   -1864192.2   -394.34701    6126634.9    101.78114    101.71634      591.785    7297.7252 
11790000      78.9913    299.98325   -1881165.6   -1881165.6   -1864187.9   -150.60963    6126550.5     101.7746    101.72148      591.785    6966.1959 
11800000      79.9913    299.96117     -1881106     -1881106   -1864129.5    86.056575    6126687.5    101.78749    101.71087      591.785    6634.5816 
11810000      80.9913    299.84871   -1881146.4   -1881146.4   -1864176.3    188.54684    6126054.2    101.78206    101.70578      591.785     6303.033 
11820000      81.9913    300.17437   -1881113.4   -1881113.4   -1864124.8    210.29785    6127792.9    101.78736    101.72935      591.785    5971.5016 
11830000      82.9913    299.98974   -1881122.9   -1881122.9   -1864144.8   -12.671885    6127373.3    101.78712    101.72262      591.785    5639.9103 
11840000      83.9913    299.79707     -1881147     -1881147   -1864179.8    324.28228    6126701.5    101.78373    101.71486      591.785    5308.3225 
11850000      84.9913    299.67559   -1881145.7   -1881145.7   -1864185.4   -437.31387    6128179.5    101.79108    101.73205      591.785    4976.7363 
11860000      85.9913    300.10129   -1881159.5   -1881159.5   -1864175.1    103.64961    6127532.2    101.78955    101.72284      591.785     4645.171 
11870000      86.9913    299.86339   -1881168.3   -1881168.3   -1864197.3    117.93154    6127250.5    101.78226    101.72545      591.785    4313.5439 
11880000      87.9913    299.98822   -1881137.7   -1881137.7   -1864159.7   -76.384384    6129092.2    101.80797    101.73033      591.785    3981.9667 
11890000      88.9913      300.007   -1881145.3   -1881145.3   -1864166.2   -157.83098    6128017.8    101.80557    101.71489      591.785    3650.3752 
11900000      89.9913    300.13963   -1881102.4   -1881102.4   -1864115.8   -387.74312    6128167.6     101.8018    101.72114      591.785    3318.7906 
11910000      90.9913    299.85271   -1881127.2   -1881127.2   -1864156.9    408.12414    6127144.1     101.7888    101.71715      591.785    2987.1932 
11920000      91.9913    299.99507   -1881160.5   -1881160.5   -1864182.1    125.18777    6127373.3    101.78372    101.72602      591.785    2655.6038 
11930000      92.9913    299.75117   -1881134.2   -1881134.2   -1864169.6   -12.637966    6127205.9     101.7772    101.72976      591.785    2324.0112 
11940000      93.9913    300.29557     -1881122     -1881122   -1864126.6    251.31801    6127319.9    101.79322    101.71564      591.785    1992.4413 
11950000      94.9913    300.16466   -1881154.4   -1881154.4   -1864166.4    311.92461    6127099.3    101.78743    101.71776      591.785    1660.8405 
11960000      95.9913    299.82393   -1881156.2   -1881156.2   -1864187.5   -341.23216    6126606.2    101.78395    101.71306      591.785    1329.2541 
11970000      96.9913    300.01296   -1881113.8   -1881113.8   -1864134.4   -109.42713    6126971.9    101.78611    101.71697      591.785    997.66233 
11980000      97.9913    299.87385   -1881131.8   -1881131.8   -1864160.3   -62.142292    6126169.3    101.78309    101.70667      591.785    666.07202 
11990000      98.9913     300.1654   -1881120.4   -1881120.4   -1864132.3    291.97915    6125552.7    101.78096    101.69855      591.785    334.47639 
12000000      99.9913    300.31016   -1881146.9   -1881146.9   -1864150.7    192.39391    6125800.7    101.77782    101.70581      591.785    2.8848481 
12000087          100    300.16891   -1881150.4   -1881150.4   -1864162.1    -107.3938    6126419.1    101.78485    101.70905      591.785            0 
Loop time of 33159.2 on 96 procs for 1000000 steps with 437844 atoms

Performance: 0.261 ns/day, 92.109 hours/ns, 30.158 timesteps/s
100.0% CPU use with 96 MPI tasks x 1 OpenMP threads

MPI task timing breakdown:
Section |  min time  |  avg time  |  max time  |%varavg| %total
---------------------------------------------------------------
Pair    | 4888.3     | 19797      | 32114      |4899.6 | 59.70
Neigh   | 0.14893    | 25.53      | 36.899     | 215.8 |  0.08
Comm    | 430.03     | 7490.8     | 27633      |10066.8 | 22.59
Output  | 1.9538     | 1.9552     | 1.9585     |   0.1 |  0.01
Modify  | 489.13     | 5766.3     | 10511      |5257.9 | 17.39
Other   |            | 78.01      |            |       |  0.24

Nlocal:        4560.88 ave        5999 max          47 min
Histogram: 12 0 0 0 0 0 3 25 20 36
Nghost:        8512.32 ave       10725 max        3070 min
Histogram: 12 0 0 0 0 12 0 28 23 21
Neighs:         0.00000 ave           0 max           0 min
Histogram: 96 0 0 0 0 0 0 0 0 0
FullNghs:      868468.0 ave 1.28743e+06 max        1941 min
Histogram: 12 0 0 0 0 24 12 8 16 24

Total # of neighbors = 83372888
Ave neighs/atom = 190.41688
Neighbor list builds = 1062
Dangerous builds = 0
System init for write_restart ...
System init for write_data ...
Total wall time: 9:12:40
