LAMMPS (29 Sep 2021)
  using 1 OpenMP thread(s) per MPI task
Reading data file ...
  orthogonal box = (0.28991511 0.25259767 0.0000000) to (102.98474 102.52206 526.16902)
  3 by 2 by 16 MPI processor grid
  reading atoms ...
  448248 atoms
  reading velocities ...
  448248 velocities
  read_data CPU = 3.934 seconds
224129 atoms in group g_left
224119 atoms in group g_right

CITE-CITE-CITE-CITE-CITE-CITE-CITE-CITE-CITE-CITE-CITE-CITE-CITE

Your simulation uses code contributions which should be cited:
- @article{cjiang2012
The log file lists these citations in BibTeX format.

CITE-CITE-CITE-CITE-CITE-CITE-CITE-CITE-CITE-CITE-CITE-CITE-CITE

Neighbor list info ...
  update every 1 steps, delay 10 steps, check yes
  max neighbors/atom: 2000, page size: 100000
  master list distance cutoff = 8.28721
  ghost atom cutoff = 8.28721
  binsize = 4.143605, bins = 25 25 127
  3 neighbor lists, perpetual/occasional/extra = 3 0 0
  (1) pair eam/alloy, perpetual, skip from (3)
      attributes: half, newton on
      pair build: skip
      stencil: none
      bin: none
  (2) pair edip/multi, perpetual
      attributes: full, newton on
      pair build: full/bin/atomonly
      stencil: full/bin/3d
      bin: standard
  (3) neighbor class addition, perpetual, half/full from (2)
      attributes: half, newton on
      pair build: halffull/newton
      stencil: none
      bin: none
Setting up Verlet run ...
  Unit style    : metal
  Current step  : 0
  Time step     : 0.00025
Per MPI rank memory allocation (min/avg/max) = 8.748 | 12.74 | 15.04 Mbytes
Step Time Temp Press PotEng KinEng TotEng Volume 
       0            0    8164.7076    87948.311     -2082515    473067.01     -1609448    5526113.8 
     100        0.025    8164.1022    88024.272   -2082505.6    473031.94   -1609473.7    5515611.3 
     200         0.05    8164.0824    88199.536   -2082499.5    473030.79   -1609468.7    5505108.7 
     300        0.075    8164.5015    88315.989   -2082506.7    473055.07   -1609451.6    5494606.2 
     400          0.1     8164.682    88624.108   -2082515.1    473065.53   -1609449.6    5484103.7 
     500        0.125    8164.4787    88767.503   -2082511.7    473053.75     -1609458    5473601.1 
     600         0.15    8164.0296    88600.786   -2082499.6    473027.73   -1609471.9    5463098.6 
     700        0.175    8164.1074    89133.312   -2082506.3    473032.24     -1609474      5452596 
     800          0.2    8164.3546    89335.544   -2082515.9    473046.56   -1609469.3    5442093.5 
     900        0.225    8164.1532    89407.319   -2082512.7    473034.89   -1609477.8    5431590.9 
    1000         0.25    8163.6665    89641.413   -2082495.7    473006.69     -1609489    5421088.4 
    1100        0.275     8163.938     89784.38   -2082515.5    473022.42   -1609493.1    5410585.8 
    1200          0.3    8163.6894     89800.18   -2082505.2    473008.02   -1609497.2    5400083.3 
    1300        0.325    8163.8973    90060.786   -2082529.1    473020.06     -1609509    5389580.7 
    1400         0.35     8163.076    90472.018     -2082494    472972.48   -1609521.5    5379078.2 
    1500        0.375     8163.129    90655.106   -2082495.2    472975.55   -1609519.6    5368575.7 
    1600          0.4    8164.0228    90583.605   -2082533.3    473027.34   -1609505.9    5358073.1 
    1700        0.425    8163.4453    90852.988   -2082496.1    472993.88   -1609502.2    5347570.6 
    1800         0.45    8163.5275    91075.485   -2082510.6    472998.64   -1609511.9      5337068 
    1900        0.475    8163.5266    91287.735   -2082507.9    472998.59   -1609509.3    5326565.5 
    2000          0.5    8164.3407    91634.368   -2082543.5    473045.75   -1609497.8    5316062.9 
    2100        0.525    8170.1562     91522.84   -2082881.2    473382.71   -1609498.5    5305560.4 
    2200         0.55     8174.052    91827.325   -2083120.5    473608.43   -1609512.1    5295057.8 
    2300        0.575    8150.2097    93229.936   -2081754.5       472227   -1609527.5    5284555.3 
    2400          0.6    8129.9356    95711.127     -2080585    471052.31   -1609532.7    5274052.8 
    2500        0.625    8112.9857    98065.819   -2079603.4    470070.22   -1609533.2    5263550.2 
    2600         0.65    8095.7276    99980.514   -2078606.6    469070.28   -1609536.4    5253047.7 
    2700        0.675    8076.5202    101734.19   -2077494.5    467957.39   -1609537.1    5242545.1 
    2800          0.7     8059.085    103409.53   -2076482.9    466947.19   -1609535.8    5232042.6 
    2900        0.725    8041.2622     105735.5   -2075446.7    465914.53   -1609532.1      5221540 
    3000         0.75    8015.1634    108260.99   -2073938.7    464402.35   -1609536.4    5211037.5 
    3100        0.775    7979.9247    111835.69   -2071904.2     462360.6   -1609543.6    5200534.9 
    3200          0.8    7945.5584    115196.93   -2069917.3    460369.41   -1609547.9    5190032.4 
    3300        0.825    7905.4264    119072.17   -2067585.7    458044.14   -1609541.5    5179529.8 
    3400         0.85    7865.0919     123465.8   -2065244.9    455707.14   -1609537.8    5169027.3 
    3500        0.875    7825.0227       127474   -2062936.4    453385.51   -1609550.9    5158524.8 
    3600          0.9    7773.0315       131721   -2059939.3    450373.11   -1609566.2    5148022.2 
    3700        0.925    7722.7403    136434.38   -2057026.5    447459.22   -1609567.3    5137519.7 
    3800         0.95    7670.1753    140947.37   -2053972.5    444413.58     -1609559    5127017.1 
    3900        0.975    7615.1593    145709.01   -2050787.2    441225.93   -1609561.3    5116514.6 
    4000            1    7558.5957    150812.95   -2047518.4     437948.6   -1609569.8      5106012 
    4100        1.025    7501.8673    156225.39   -2044238.7    434661.73     -1609577    5095509.5 
    4200         1.05    7446.1076    161532.24   -2041010.7    431430.99   -1609579.7    5085006.9 
    4300        1.075    7388.3209    167306.58   -2037661.9     428082.8   -1609579.1    5074504.4 
    4400          1.1    7330.9959    172603.06   -2034346.7    424761.36   -1609585.3    5064001.8 
    4500        1.125    7273.5821    177750.77   -2031024.8    421434.78     -1609590    5053499.3 
    4600         1.15    7216.3254    183627.29   -2027701.5     418117.3   -1609584.2    5042996.8 
    4700        1.175    7160.5722    189727.52   -2024458.8    414886.94   -1609571.9    5032494.2 
    4800          1.2    7104.6409    195516.63   -2021220.7    411646.25   -1609574.5    5021991.7 
    4900        1.225    7045.6713    201050.91   -2017819.6    408229.52   -1609590.1    5011489.1 
    5000         1.25     6988.554    207074.77   -2014517.3    404920.12   -1609597.2    5000986.6 
    5100        1.275    6929.1148     212764.6   -2011078.5    401476.18   -1609602.3      4990484 
    5200          1.3    6871.9051     218812.7   -2007760.2    398161.43   -1609598.8    4979981.5 
    5300        1.325    6814.4537    224813.56   -2004428.7    394832.67   -1609596.1    4969478.9 
    5400         1.35    6756.6103    230924.45   -2001071.3    391481.19   -1609590.1    4958976.4 
    5500        1.375    6699.9348    236791.19   -1997771.1    388197.38   -1609573.7    4948473.9 
    5600          1.4    6643.9325    242180.37   -1994513.3    384952.59   -1609560.8    4937971.3 
    5700        1.425    6585.3659    247999.03   -1991118.3    381559.21   -1609559.1    4927468.8 
    5800         1.45    6528.1589    253867.18   -1987808.7    378244.61   -1609564.1    4916966.2 
    5900        1.475    6472.6897    259920.35   -1984597.1     375030.7   -1609566.4    4906463.7 
    6000          1.5    6415.5992    265699.68   -1981277.1    371722.85   -1609554.3    4895961.1 
    6100        1.525    6359.9948    271207.54   -1978036.5     368501.1   -1609535.4    4885458.6 
    6200         1.55    6301.9865    277253.47   -1974651.7    365140.08   -1609511.6      4874956 
    6300        1.575    6247.1633    282766.53   -1971457.6    361963.59     -1609494    4864453.5 
    6400          1.6    6189.4561    288930.78   -1968113.7    358620.01   -1609493.7    4853950.9 
    6500        1.625    6132.6077    294680.54   -1964825.6    355326.19   -1609499.4    4843448.4 
    6600         1.65    6075.7314    300852.77   -1961531.3    352030.75   -1609500.5    4832945.9 
    6700        1.675    6019.5285    306756.56   -1958264.5    348774.32   -1609490.2    4822443.3 
    6800          1.7    5957.9561    314938.41   -1954687.3    345206.79   -1609480.5    4811940.8 
    6900        1.725    5894.8068    324308.31   -1951027.5    341547.89   -1609479.6    4801438.2 
    7000         1.75    5855.3221    335545.97   -1948736.3    339260.13   -1609476.1    4790935.7 
    7100        1.775    5812.1943    347544.48   -1946218.4    336761.28   -1609457.1    4780433.1 
    7200          1.8    5752.5346    356763.49   -1942746.2    333304.57   -1609441.7    4769930.6 
    7300        1.825    5712.3758    363229.54     -1940419    330977.75   -1609441.3      4759428 
    7400         1.85     5678.611    372017.11   -1938457.6     329021.4   -1609436.2    4748925.5 
    7500        1.875     5626.073    380818.66   -1935400.6    325977.32   -1609423.2      4738423 
    7600          1.9    5580.8717    383565.41   -1932774.5    323358.34   -1609416.2    4727920.4 
    7700        1.925    5534.8893    385761.87   -1930110.9     320694.1   -1609416.8    4717417.9 
    7800         1.95    5489.5721    388997.19   -1927491.2     318068.4   -1609422.8    4706915.3 
    7900        1.975     5438.663    393442.22   -1924541.7     315118.7     -1609423    4696412.8 
    8000            2    5392.8951    397826.42   -1921874.8    312466.89   -1609407.9    4685910.2 
    8100        2.025    5342.0519    402922.63   -1918915.7    309521.01   -1609394.7    4675407.7 
    8200         2.05    5299.8011    408655.45   -1916458.1    307072.98   -1609385.1    4664905.1 
    8300        2.075    5254.0618    414737.35   -1913801.3    304422.82   -1609378.5    4654402.6 
    8400          2.1    5208.3313    419622.63   -1911154.8    301773.18   -1609381.7      4643900 
    8500        2.125    5160.7455    424882.33   -1908403.9    299016.03   -1609387.9    4633397.5 
    8600         2.15    5113.2455    430521.06   -1905653.9    296263.86     -1609390      4622895 
    8700        2.175    5068.0822    436632.73   -1903041.1    293647.07     -1609394    4612392.4 
    8800          2.2    5019.7181    442478.95   -1900241.5    290844.84   -1609396.6    4601889.9 
    8900        2.225    4971.7907     448259.5   -1897462.5     288067.9   -1609394.6    4591387.3 
    9000         2.25    4921.6514     453706.9   -1894555.2    285162.81   -1609392.4    4580884.8 
    9100        2.275    4875.7105    461368.71   -1891884.5    282500.97   -1609383.5    4570382.2 
    9200          2.3    4826.4377    468094.51   -1889015.4    279646.08   -1609369.3    4559879.7 
    9300        2.325    4777.0463    474781.75   -1886148.4    276784.32     -1609364    4549377.1 
    9400         2.35    4727.8903    482059.34   -1883313.7     273936.2   -1609377.5    4538874.6 
    9500        2.375    4678.1583    489825.66   -1880448.6     271054.7   -1609393.9      4528372 
    9600          2.4    4627.0186    497114.71   -1877495.9    268091.64   -1609404.2    4517869.5 
    9700        2.425    4573.2498    503824.14   -1874389.1    264976.25   -1609412.8      4507367 
    9800         2.45    4520.5832    510923.82   -1871340.8    261924.72   -1609416.1    4496864.4 
    9900        2.475    4469.9301    517803.88   -1868403.1    258989.86   -1609413.2    4486361.9 
   10000          2.5    4415.8785    525855.15   -1865267.5    255858.08   -1609409.4    4475859.3 
   10100        2.525    4360.9823    534774.49   -1862080.4    252677.37     -1609403    4465356.8 
   10200         2.55    4304.9586    541548.89   -1858830.6    249431.34   -1609399.2    4454854.2 
   10300        2.575    4250.4003    549642.65   -1855674.8     246270.2   -1609404.6    4444351.7 
   10400          2.6    4196.3757    557273.35   -1852555.7    243139.99   -1609415.7    4433849.1 
   10500        2.625     4136.646    564609.91   -1849103.6    239679.22   -1609424.4    4423346.6 
   10600         2.65    4084.1136    572558.87     -1846058    236635.47   -1609422.5    4412844.1 
   10700        2.675    4028.5838    580067.08   -1842827.2    233418.05   -1609409.1    4402341.5 
   10800          2.7    3977.5615     588010.6   -1839855.6    230461.79   -1609393.8      4391839 
   10900        2.725    3920.9185     595661.3   -1836569.8    227179.87   -1609389.9    4381336.4 
   11000         2.75    3865.8789    603698.38   -1833389.9    223990.85     -1609399    4370833.9 
   11100        2.775    3820.6331     610254.8   -1830775.8    221369.29   -1609406.5    4360331.3 
   11200          2.8    3826.0403    613543.74     -1831087    221682.58   -1609404.5    4349828.8 
   11300        2.825    3810.2234    614423.47   -1830166.7    220766.14   -1609400.5    4339326.2 
   11400         2.85    3788.1781    615488.71   -1828897.6    219488.83   -1609408.7    4328823.7 
   11500        2.875    3795.6253    618543.42   -1829338.5    219920.32   -1609418.2    4318321.1 
   11600          2.9    3767.9275    621611.32     -1827731     218315.5   -1609415.5    4307818.6 
   11700        2.925    3765.9963    622901.23   -1827613.6     218203.6     -1609410    4297316.1 
   11800         2.95    3766.8821    623291.27   -1827667.3    218254.92   -1609412.4    4286813.5 
   11900        2.975    3738.5896    624460.94   -1826028.6    216615.64     -1609413      4276311 
   12000            3    3758.6728     626391.7   -1827187.8    217779.27   -1609408.6    4265808.4 
   12100        3.025    3729.1703     628774.9   -1825477.8    216069.89   -1609407.9    4255305.9 
   12200         3.05    3742.4036     630014.3   -1826251.6    216836.63     -1609415    4244803.3 
   12300        3.075    3734.2442    630982.12   -1825786.5    216363.87   -1609422.7    4234300.8 
   12400          3.1    3726.7935    632476.42   -1825356.8    215932.17   -1609424.7    4223798.2 
   12500        3.125    3725.8507     633721.6   -1825302.8    215877.55   -1609425.3    4213295.7 
   12600         3.15    3670.0357    639555.45     -1822068     212643.6   -1609424.4    4202793.1 
   12700        3.175       3647.4    643803.04     -1820756    211332.08     -1609424    4192290.6 
   12800          3.2    3590.1213    647010.72   -1817441.2    208013.33   -1609427.9    4181788.1 
   12900        3.225    3555.4568    652962.16   -1815440.2    206004.84   -1609435.4    4171285.5 
   13000         3.25    3508.3496    657835.25   -1812716.9    203275.43   -1609441.4      4160783 
   13100        3.275    3453.6664    663102.32   -1809548.5    200107.06   -1609441.4    4150280.4 
   13200          3.3     3415.636    668915.95   -1807346.1    197903.56   -1609442.5    4139777.9 
   13300        3.325    3352.4706    673092.21   -1803692.3    194243.73   -1609448.6    4129275.3 
   13400         3.35    3295.2833    678982.96   -1800383.9    190930.27   -1609453.7    4118772.8 
   13500        3.375    3229.5962    685864.94   -1796586.3    187124.33     -1609462    4108270.2 
   13600          3.4    3173.0297    692115.37     -1793315    183846.84   -1609468.2    4097767.7 
   13700        3.425    3103.8686    698174.22   -1789309.8    179839.61   -1609470.1    4087265.2 
   13800         3.45    3038.4167    704864.58     -1785522     176047.3   -1609474.7    4076762.6 
   13900        3.475     2971.501    713084.93   -1781653.5    172170.17   -1609483.3    4066260.1 
   14000          3.5    2905.3723    719739.64   -1777829.3    168338.64   -1609490.6    4055757.5 
   14100        3.525    2838.9573    727584.76   -1773984.3    164490.53   -1609493.7      4045255 
   14200         3.55    2771.6496    734905.18   -1770082.3    160590.69   -1609491.6    4034752.4 
   14300        3.575     2711.153     742247.6   -1766573.5    157085.49     -1609488    4024249.9 
   14400          3.6    2651.4014    750323.79   -1763110.4    153623.45     -1609487    4013747.3 
   14500        3.625     2588.595    757546.77   -1759468.6    149984.42   -1609484.1    4003244.8 
   14600         3.65    2528.9495    765265.14   -1756004.1    146528.53   -1609475.6    3992742.2 
   14700        3.675     2472.182     772926.2   -1752708.8    143239.39   -1609469.4    3982239.7 
   14800          3.7    2413.4912    780591.35     -1749311    139838.82   -1609472.2    3971737.2 
   14900        3.725    2358.6913    789084.48   -1746150.2    136663.69   -1609486.5    3961234.6 
   15000         3.75    2307.2906    796406.16   -1743184.4    133685.51   -1609498.9    3950732.1 
   15100        3.775    2254.2808    805924.15   -1740117.4     130614.1   -1609503.3    3940229.5 
   15200          3.8    2203.9724    814097.62   -1737196.7     127699.2   -1609497.5      3929727 
   15300        3.825    2152.7289    822318.39   -1734221.1    124730.13   -1609490.9    3919224.4 
   15400         3.85    2103.9056     830903.2   -1731389.3    121901.28     -1609488    3908721.9 
   15500        3.875    2050.8959       839522     -1728323    118829.88   -1609493.1    3898219.3 
   15600          3.9    2002.9075    847468.99   -1725555.7    116049.41   -1609506.3    3887716.8 
   15700        3.925    1950.2579    856945.67   -1722520.1    112998.86   -1609521.2    3877214.2 
   15800         3.95    1899.4505    865392.31   -1719591.6    110055.06   -1609536.5    3866711.7 
   15900        3.975    1849.5185    875500.85   -1716706.8    107161.98   -1609544.8    3856209.2 
   16000            4    1804.8021    887995.65   -1714114.8    104571.09   -1609543.7    3845706.6 
   16100        4.025    1763.6668    900081.04   -1711725.5    102187.69   -1609537.8    3835204.1 
   16200         4.05    1770.7791    907103.23   -1712135.8    102599.78     -1609536    3824701.5 
   16300        4.075    1770.3617    912018.77   -1712117.9    102575.59   -1609542.3      3814199 
   16400          4.1     1756.316    914445.04   -1711303.5    101761.78   -1609541.7    3803696.4 
   16500        4.125    1767.4285    917786.68   -1711924.2    102405.64   -1609518.6    3793193.9 
   16600         4.15    1748.0443    922618.91     -1710692    101282.51   -1609409.5    3782691.3 
   16700        4.175    1743.1824    927025.21   -1710269.6    101000.81   -1609268.7    3772188.8 
   16800          4.2    1763.1171    931133.03   -1709008.8    102155.84   -1606852.9    3761686.3 
   16900        4.225    1794.3434    940869.42   -1699957.7     103965.1   -1595992.6    3751183.7 
   17000         4.25    1861.7106    949942.87   -1694045.2    107868.39   -1586176.8    3740681.2 
   17100        4.275     1859.852    959228.77     -1685399     107760.7   -1577638.3    3730178.6 
   17200          4.3    1905.1425    972245.61   -1677483.3    110384.86   -1567098.4    3719676.1 
   17300        4.325    1930.9118     985401.3   -1668238.8    111877.94   -1556360.9    3709173.5 
   17400         4.35    1891.2035    1001903.7   -1656514.4    109577.22   -1546937.2      3698671 
   17500        4.375    1928.9882    1022244.7   -1646252.4    111766.48   -1534485.9    3688168.4 
   17600          4.4    1996.6242    1042127.9   -1633166.4    115685.35     -1517481    3677665.9 
   17700        4.425     2045.775    1064675.1     -1620165    118533.17   -1501631.8    3667163.3 
   17800         4.45    2095.3378    1088339.3   -1606810.3    121404.86   -1485405.4    3656660.8 
   17900        4.475    2202.5479    1113920.9   -1593086.3    127616.66   -1465469.7    3646158.3 
   18000          4.5    2287.3775    1138607.9   -1579054.5    132531.73   -1446522.7    3635655.7 
   18100        4.525    2376.3302    1164296.9   -1565402.4     137685.7   -1427716.7    3625153.2 
   18200         4.55    2503.2542    1190165.8     -1551566    145039.73   -1406526.3    3614650.6 
   18300        4.575    2636.2693    1215699.6   -1538607.1    152746.69   -1385860.4    3604148.1 
   18400          4.6    2762.2438      1242230   -1525638.4    160045.71   -1365592.7    3593645.5 
   18500        4.625    2889.8547      1267912     -1512648    167439.54   -1345208.5      3583143 
   18600         4.65    3031.6771    1293233.6   -1500056.7     175656.8   -1324399.9    3572640.4 
   18700        4.675    3175.2972      1318801   -1487465.3    183978.22     -1303487    3562137.9 
   18800          4.7    3306.2379    1345483.7   -1474706.1    191564.99   -1283141.1    3551635.3 
   18900        4.725    3423.4182    1370638.8     -1461348    198354.47   -1262993.6    3541132.8 
   19000         4.75     3542.841    1395895.8   -1447772.2    205273.88   -1242498.3    3530630.3 
   19100        4.775    3641.5206    1420142.6   -1433372.7    210991.42   -1222381.2    3520127.7 
   19200          4.8    3727.5361    1445483.5   -1418464.6     215975.2   -1202489.4    3509625.2 
   19300        4.825    3808.0174    1468695.6   -1403304.7    220638.33   -1182666.3    3499122.6 
   19400         4.85    3946.5724      1488674   -1391506.8    228666.27   -1162840.6    3488620.1 
   19500        4.875    4163.6274    1499414.7   -1384417.9    241242.54   -1143175.4    3478117.5 
   19600          4.9    4342.7587    1503498.4   -1375213.5    251621.49     -1123592      3467615 
   19700        4.925    4554.8336    1505880.7     -1367661    263909.21   -1103751.8    3457112.4 
   19800         4.95    4790.1033    1512627.2   -1361432.1    277540.84   -1083891.3    3446609.9 
   19900        4.975    5010.9991    1521034.7   -1354568.9    290339.65   -1064229.2    3436107.4 
   20000            5    5245.3901    1529188.2   -1348287.8    303920.38   -1044367.4    3425604.8 
   20100        5.025    5418.0136    1544865.8   -1338232.8    313922.27   -1024310.5    3415102.3 
   20200         5.05    5599.2007    1563244.8   -1328343.7    324420.33   -1003923.3    3404599.7 
   20300        5.075    5739.4631    1582607.2   -1315884.5     332547.2   -983337.27    3394097.2 
   20400          5.1    5878.9625      1605459   -1303216.4    340629.86   -962586.51    3383594.6 
   20500        5.125    6008.3338    1628485.3   -1289583.6     348125.7   -941457.86    3373092.1 
   20600         5.15    6136.7451    1653276.9   -1275682.2    355565.91   -920116.31    3362589.5 
   20700        5.175    6249.3237      1676901   -1260817.3    362088.77   -898728.53      3352087 
   20800          5.2    6359.8083    1704592.2   -1246314.5     368490.3    -877824.2    3341584.4 
   20900        5.225     6462.316    1729849.1     -1232167    374429.64   -857737.36    3331081.9 
   21000         5.25    6557.1203    1757398.3   -1218684.3    379922.65   -838761.64    3320579.4 
   21100        5.275    6621.8819    1784026.4   -1204653.5    383674.96   -820978.54    3310076.8 
   21200          5.3    6650.0651    1810703.5   -1190245.2    385307.91    -804937.3    3299574.3 
   21300        5.325    6666.8609    1836020.7   -1176507.7    386281.07   -790226.59    3289071.7 
   21400         5.35    6648.7329      1861813   -1161944.6    385230.72   -776713.89    3278569.2 
   21500        5.375    6624.3731    1886952.1   -1147957.4     383819.3   -764138.11    3268066.6 
   21600          5.4    6597.3681    1910254.9   -1134382.5    382254.62   -752127.92    3257564.1 
   21700        5.425    6580.7352      1935060   -1121587.8     381290.9   -740296.89    3247061.5 
   21800         5.45    6595.9339    1957680.8   -1110845.2    382171.52   -728673.66      3236559 
   21900        5.475    6640.5435      1980921   -1101907.8    384756.23   -717151.55    3226056.5 
   22000          5.5    6701.8725    2009298.4   -1094227.2    388309.66   -705917.58    3215553.9 
   22100        5.525    6808.1974    2042789.8   -1089272.3    394470.17   -694802.18    3205051.4 
   22200         5.55    6949.0259    2068338.9   -1085852.2    402629.84   -683222.32    3194548.8 
   22300        5.575    7116.1239    2094169.6   -1082746.2    412311.58   -670434.66    3184046.3 
   22400          5.6    7306.6526    2115489.7   -1079097.1     423350.9   -655746.21    3173543.7 
   22500        5.625     7538.801    2130836.9   -1075785.8    436801.69   -638984.14    3163041.2 
   22600         5.65    7751.8529    2149174.5     -1070267    449146.02   -621120.99    3152538.6 
   22700        5.675    7931.7824    2177575.6   -1062390.1    459571.22   -602818.85    3142036.1 
   22800          5.7    8115.3738      2210247   -1054378.9    470208.59   -584170.33    3131533.5 
   22900        5.725    8279.3462    2244525.5   -1044170.2    479709.23   -564460.99      3121031 
   23000         5.75    8453.4226    2278978.5   -1033680.5     489795.3   -543885.25    3110528.5 
   23100        5.775    8635.3961    2312925.1   -1023019.1    500338.93   -522680.17    3100025.9 
   23200          5.8    8802.8872      2344379   -1011483.4    510043.44   -501439.93    3089523.4 
   23300        5.825    8974.8156    2378884.6   -1000049.6    520005.05   -480044.51    3079020.8 
   23400         5.85    9137.6433    2412572.7   -987604.42    529439.37   -458165.05    3068518.3 
   23500        5.875    9266.3828    2448052.9    -973631.9     536898.6    -436733.3    3058015.7 
   23600          5.9    9400.0506      2480754   -959960.28    544643.37   -415316.91    3047513.2 
   23700        5.925    9507.2065    2516054.2   -944683.28    550852.03   -393831.25    3037010.6 
   23800         5.95    9608.4932    2553891.4   -929664.02    556720.63   -372943.39    3026508.1 
   23900        5.975    9703.9183    2588765.9   -914461.68    562249.61   -352212.07    3016005.5 
   24000            6     9807.074    2626911.2   -899669.31     568226.5   -331442.82      3005503 
   24100        6.025    9908.3961    2662317.8   -885115.63    574097.15   -311018.48    2995000.5 
   24200         6.05    10012.063    2695565.8   -870731.89    580103.68   -290628.21    2984497.9 
   24300        6.075    10159.716    2725403.5   -858802.35    588658.75    -270143.6    2973995.4 
   24400          6.1    10349.527    2746071.2    -849452.9    599656.47   -249796.43    2963492.8 
   24500        6.125    10546.488    2760156.2   -840554.82    611068.51   -229486.31    2952990.3 
   24600         6.15    10693.081    2772811.9    -828834.2    619562.18   -209272.02    2942487.7 
   24700        6.175    10775.473    2792675.2   -813309.44    624335.99   -188973.45    2931985.2 
   24800          6.2    10840.187    2821204.6    -796985.4    628085.58   -168899.83    2921482.6 
   24900        6.225    10847.031    2855470.3   -777591.65    628482.11   -149109.54    2910980.1 
   25000         6.25    10828.408    2885014.6   -756797.85    627403.08   -129394.78    2900477.6 
   25100        6.275    10799.866    2913585.3   -735875.24    625749.32   -110125.92      2889975 
   25200          6.3    10742.196    2946879.8    -713431.5    622407.88   -91023.614    2879472.5 
   25300        6.325     10696.15    2978742.9   -692443.06    619739.96   -72703.099    2868969.9 
   25400         6.35    10591.301    3013022.1   -668664.43    613664.97   -54999.457    2858467.4 
   25500        6.375    10510.969    3046723.8    -646736.1    609010.51   -37725.584    2847964.8 
   25600          6.4    10382.468    3082030.9   -622937.55    601565.08   -21372.465    2837462.3 
   25700        6.425    10265.666    3118242.4   -600464.91    594797.56   -5667.3511    2826959.7 
   25800         6.45    10129.656    3154974.9   -577626.73    586917.08    9290.3512    2816457.2 
   25900        6.475    9985.8408    3189835.4   -555140.04    578584.33    23444.293    2805954.6 
   26000          6.5    9860.0098    3227920.7   -534462.42    571293.62      36831.2    2795452.1 
   26100        6.525    9715.3484    3267068.1      -513332    562911.88    49579.875    2784949.6 
   26200         6.55    9573.5426    3313291.8   -492998.33    554695.58    61697.249      2774447 
   26300        6.575     9463.434    3369101.9   -474858.04    548315.84    73457.797    2763944.5 
   26400          6.6    9337.4446    3437006.1   -456533.03    541015.95    84482.917    2753441.9 
   26500        6.625    9210.9836      3511616   -438409.93    533688.74    95278.803    2742939.4 
   26600         6.65    9076.9534    3575538.7    -419991.8    525922.97    105931.16    2732436.8 
   26700        6.675    8898.6451      3626853   -399105.26     515591.7    116486.44    2721934.3 
   26800          6.7    8703.6121    3670795.1   -377265.67     504291.4    127025.73    2711431.7 
   26900        6.725      8537.09    3720403.4   -356780.86    494643.02    137862.17    2700929.2 
   27000         6.75     8333.007    3765951.8   -333667.87    482818.36    149150.49    2690426.6 
   27100        6.775    8169.1822    3815275.7   -312220.05    473326.28    161106.23    2679924.1 
   27200          6.8    7989.0925    3859472.5   -288817.65    462891.79    174074.14    2669421.6 
   27300        6.825     7862.031    3907627.6   -267924.25    455529.79    187605.55      2658919 
   27400         6.85    7683.3715    3959619.5   -243358.19    445178.17    201819.98    2648416.5 
   27500        6.875    7560.6228    4010061.9   -221468.11    438066.06    216597.94    2637913.9 
   27600          6.9    7421.9109    4063438.5   -198004.68    430029.03    232024.34    2627411.4 
   27700        6.925     7315.466    4112808.6   -175527.47    423861.55    248334.08    2616908.8 
   27800         6.95    7227.8851    4166529.2   -153885.72    418787.08    264901.35    2606406.3 
   27900        6.975    7169.6319    4210091.2   -133495.66    415411.86    281916.19    2595903.7 
   28000            7    7162.8781    4253739.8   -115556.21    415020.54    299464.33    2585401.2 
   28100        7.025    7164.1912    4297117.8   -97470.704    415096.62    317625.92    2574898.7 
   28200         7.05    7187.5167    4343826.2   -80162.897    416448.11    336285.21    2564396.1 
   28300        7.075     7215.868    4393202.1   -62826.636     418090.8    355264.17    2553893.6 
   28400          7.1    7254.0301    4441896.6   -45716.945    420301.93    374584.98      2543391 
   28500        7.125     7275.793    4492287.4   -27282.756    421562.88    394280.13    2532888.5 
   28600         7.15    7284.1367    4544280.6   -7795.1306    422046.32    414251.19    2522385.9 
   28700        7.175    7239.5855    4595618.7    15274.649       419465    434739.65    2511883.4 
   28800          7.2    7226.8447    4646380.8    36571.861     418726.8    455298.66    2501380.8 
   28900        7.225    7168.6727    4700401.7    61103.035    415356.28    476459.32    2490878.3 
   29000         7.25    7106.1782    4755837.9    85774.489    411735.32    497509.81    2480375.7 
   29100        7.275    7022.3122    4814442.1    111788.35    406876.08    518664.44    2469873.2 
   29200          7.3    6950.2948    4877245.5    137618.54    402703.36     540321.9    2459370.7 
   29300        7.325    6900.7716    4935295.3    162317.39    399833.96    562151.35    2448868.1 
   29400         7.35    6850.6419    4999331.6    187883.09    396929.42    584812.52    2438365.6 
   29500        7.375     6834.093    5065406.4    213766.83    395970.57    609737.41      2427863 
   29600          7.4    6909.3168    5131440.9    239656.89    400329.08    639985.97    2417360.5 
   29700        7.425    7022.9846    5212466.3    270918.91    406915.04    677833.95    2406857.9 
   29800         7.45    7212.8674    5301103.7    304751.61    417916.94    722668.55    2396355.4 
   29900        7.475    7432.3794    5399382.2    339445.87    430635.57    770081.44    2385852.8 
   30000          7.5    7659.9905    5499945.4    375780.82    443823.47    819604.28    2375350.3 
   30100        7.525    7914.4587    5611827.4     414038.7    458567.48    872606.17    2364847.7 
   30200         7.55    8180.1792    5726291.5    452970.28    473963.45    926933.73    2354345.2 
   30300        7.575    8449.3194    5844209.9    492530.83    489557.56    982088.39    2343842.7 
   30400          7.6    8704.9635    5971360.4    534182.04    504369.69    1038551.7    2333340.1 
   30500        7.625    8938.2358    6092922.2    577844.82     517885.6    1095730.4    2322837.6 
   30600         7.65      9229.47    6218312.6    618938.64    534759.85    1153698.5      2312335 
   30700        7.675    9487.9569    6340757.7    661960.25     549736.7      1211697    2301832.5 
   30800          7.7    9758.0945    6457270.4    705535.24     565388.6    1270923.8    2291329.9 
   30900        7.725     10044.28    6575119.1    747848.86    581970.31    1329819.2    2280827.4 
   31000         7.75    10295.981    6701826.7    793306.12    596553.99    1389860.1    2270324.8 
   31100        7.775    10524.248    6831897.9    839694.62    609779.92    1449474.5    2259822.3 
   31200          7.8    10742.855    6959453.3     887327.6     622446.1    1509773.7    2249319.8 
   31300        7.825    10964.935    7086615.8    934106.45    635313.54      1569420    2238817.2 
   31400         7.85    11166.353      7218259    982215.16    646983.79      1629199    2228314.7 
   31500        7.875    11353.535    7346041.3    1029795.6    657829.17    1687624.8    2217812.1 
   31600          7.9    11558.333    7483523.4      1075453    669695.29    1745148.2    2207309.6 
   31700        7.925    11747.854    7631601.6    1120946.9    680676.22    1801623.1      2196807 
   31800         7.95    12023.008    7794186.3    1162290.4    696618.74    1858909.2    2186304.5 
   31900        7.975    12333.886    7963456.4    1202100.1    714631.17    1916731.3    2175801.9 
   32000            8    12726.489    8109735.5    1239988.2    737378.78    1977366.9    2165299.4 
   32100        8.025    13148.374    8247054.9    1278710.3       761823    2040533.3    2154796.8 
   32200         8.05    13560.004    8388473.8    1319324.4    785673.05    2104997.4    2144294.3 
   32300        8.075    14026.275    8537530.8    1358664.6       812689    2171353.6    2133791.8 
   32400          8.1    14455.933    8688414.6    1401364.3     837583.6    2238947.9    2123289.2 
   32500        8.125      14854.1    8849616.8    1447152.7    860653.54    2307806.2    2112786.7 
   32600         8.15    15228.009    9017571.1      1494531    882318.04      2376849    2102284.1 
   32700        8.175    15606.949    9185031.5    1542972.9    904273.98    2447246.9    2091781.6 
   32800          8.2    15942.192    9360156.4    1594330.7    923698.14    2518028.9      2081279 
   32900        8.225    16246.169    9525479.2    1647517.9    941310.69    2588828.6    2070776.5 
   33000         8.25    16427.048    9704653.9      1707205    951790.91    2658995.9    2060273.9 
   33100        8.275    16493.048    9892583.5    1772515.5    955614.96    2728130.5    2049771.4 
   33200          8.3    16534.148     10084693      1838553    957996.35    2796549.3    2039268.8 
   33300        8.325    16487.519     10274802    1908108.2    955294.64    2863402.8    2028766.3 
   33400         8.35    16337.947     10470781    1981384.6    946628.39      2928013    2018263.8 
   33500        8.375    16147.128     10672602      2054677     935572.2    2990249.2    2007761.2 
   33600          8.4    15878.444     10896879    2129422.5    920004.53      3049427    1997258.7 
   33700        8.425     15595.58     11149982    2203749.9    903615.29    3107365.2    1986756.1 
   33800         8.45    15294.204     11429091    2277290.6    886153.42    3163444.1    1976253.6 
   33900        8.475    14885.676     11678713    2355147.1    862483.08    3217630.2      1965751 
   34000          8.5     14427.84     11885477    2435762.8    835955.85    3271718.7    1955248.5 
   34100        8.525    13943.972     12108084      2517414    807920.33    3325334.3    1944745.9 
   34200         8.55    13465.581     12334456      2598467    780202.12    3378669.1    1934243.4 
   34300        8.575    13003.933     12540880    2678532.9    753454.03    3431986.9    1923740.9 
   34400          8.6    12602.043     12742483    2755820.4    730168.32    3485988.7    1913238.3 
