LAMMPS (29 Sep 2021)
  using 1 OpenMP thread(s) per MPI task
Reading restart file ...
  restart file = 29 Sep 2021, LAMMPS = 29 Sep 2021
  restoring atom style atomic from restart
  orthogonal box = (0.62608453 0.63717622 0.0000000) to (100.62100 100.60991 537.92000)
  3 by 2 by 16 MPI processor grid
  pair style hybrid/overlay stores no restart info
  439750 atoms
  read_restart CPU = 0.188 seconds
Resetting global fix info from restart file:
  fix style: npt, fix ID: 2

CITE-CITE-CITE-CITE-CITE-CITE-CITE-CITE-CITE-CITE-CITE-CITE-CITE

Your simulation uses code contributions which should be cited:
- @article{cjiang2012
The log file lists these citations in BibTeX format.

CITE-CITE-CITE-CITE-CITE-CITE-CITE-CITE-CITE-CITE-CITE-CITE-CITE

All restart file global fix info was re-assigned
Unused restart file peratom fix info:
  fix style: STORE, fix ID: spatialbins_COMPUTE_STORE
Neighbor list info ...
  update every 1 steps, delay 10 steps, check yes
  max neighbors/atom: 2000, page size: 100000
  master list distance cutoff = 8.28721
  ghost atom cutoff = 8.28721
  binsize = 4.143605, bins = 25 25 130
  3 neighbor lists, perpetual/occasional/extra = 3 0 0
  (1) pair eam/alloy, perpetual, skip from (3)
      attributes: half, newton on
      pair build: skip
      stencil: none
      bin: none
  (2) pair edip/multi, perpetual
      attributes: full, newton on
      pair build: full/bin/atomonly
      stencil: full/bin/3d
      bin: standard
  (3) neighbor class addition, perpetual, half/full from (2)
      attributes: half, newton on
      pair build: halffull/newton
      stencil: none
      bin: none
Setting up Verlet run ...
  Unit style    : metal
  Current step  : 11000994
  Time step     : 0.00025
Per MPI rank memory allocation (min/avg/max) = 8.450 | 11.14 | 13.33 Mbytes
Step Time Temp PotEng E_pair TotEng Press Volume Lx Ly Lz CPULeft 
11000994            0    299.77646   -2071152.8   -2071152.8   -2054112.9       206.45    5377459.8    99.994915    99.972732       537.92            0 
11010000       2.2515    300.00886   -2071156.4   -2071156.4   -2054103.3   -52.268415    5377192.6    99.998908    99.963773       537.92    44936.033 
11020000       4.7515    299.21261   -2071139.5   -2071139.5   -2054131.6    102.43761    5376842.7    99.999351    99.956826       537.92     44545.57 
11030000       7.2515    300.39721   -2071166.8   -2071166.8   -2054091.6    35.938269    5377377.2    99.997348    99.968765       537.92    44099.928 
11040000       9.7515    300.26891   -2071154.8   -2071154.8     -2054087    147.42582    5377413.4    100.00379    99.962997       537.92    43642.635 
11050000      12.2515    299.76841   -2071174.9   -2071174.9   -2054135.5   -316.80155    5377885.1    100.00669    99.968867       537.92    43192.802 
11060000      14.7515    299.91984   -2071134.6   -2071134.6   -2054086.6   -21.622648    5378027.2    100.00418    99.974013       537.92    42755.425 
11070000      17.2515    300.20602   -2071165.8   -2071165.8   -2054101.5   -107.83488    5377992.2    99.999923    99.977624       537.92     42296.46 
11080000      19.7515    300.17946   -2071156.4   -2071156.4   -2054093.6   -133.26919    5377373.7     100.0035    99.962554       537.92    41845.191 
11090000      22.2515    300.03706   -2071166.3   -2071166.3   -2054111.6   -96.295349    5377647.4    100.01091    99.960227       537.92    41390.501 
11100000      24.7515    299.60495   -2071157.9   -2071157.9   -2054127.8    582.06853    5377231.1    99.993236     99.97016       537.92    40935.952 
11110000      27.2515    299.88047   -2071166.8   -2071166.8     -2054121   -91.418971    5377485.6    99.989665    99.978462       537.92     40483.92 
11120000      29.7515    299.45144   -2071141.2   -2071141.2   -2054119.8    169.10338    5377578.5     99.99334    99.976515       537.92    40031.512 
11130000      32.2515    299.62933   -2071156.5   -2071156.5     -2054125   -64.800767    5377628.4    100.00785    99.962938       537.92    39581.445 
11140000      34.7515     299.5981     -2071173     -2071173   -2054143.3   -378.64764    5377837.1    100.00443    99.970236       537.92    39126.657 
11150000      37.2515    299.65217   -2071134.7   -2071134.7   -2054101.8    360.87073    5378089.6    100.00926    99.970096       537.92    38670.329 
11160000      39.7515    299.60862   -2071147.2   -2071147.2   -2054116.8   -36.836348    5377969.7    100.00879     99.96834       537.92    38216.584 
11170000      42.2515    299.64576   -2071156.7   -2071156.7   -2054124.2   -106.30495    5377706.5    100.00267    99.969567       537.92    37760.653 
11180000      44.7515    300.00466   -2071154.5   -2071154.5   -2054101.6    38.368995    5377624.2    100.00077    99.969937       537.92    37305.355 
11190000      47.2515    300.05678   -2071172.1   -2071172.1   -2054116.2     -451.653    5377907.2     100.0084    99.967565       537.92    36851.269 
11200000      49.7515    300.63461   -2071187.1   -2071187.1   -2054098.4    187.57077    5377083.3    99.993483    99.967164       537.92    36395.684 
11210000      52.2515    299.85911   -2071154.6   -2071154.6     -2054110    213.20388    5377336.1    99.995472    99.969877       537.92    35942.091 
11220000      54.7515    300.48174     -2071151     -2071151     -2054071    193.37979    5377529.4    100.00602    99.962922       537.92    35487.727 
11230000      57.2515     300.1087   -2071177.3   -2071177.3   -2054118.5    94.431905    5377809.4    100.00182    99.972326       537.92    35032.293 
11240000      59.7515    299.76992   -2071150.9   -2071150.9   -2054111.3    426.95232    5378192.5    100.00707    99.974204       537.92    34575.323 
11250000      62.2515    300.16224   -2071148.4   -2071148.4   -2054086.6    -122.7309    5377721.8    100.00756    99.964958       537.92    34119.514 
11260000      64.7515     300.0527   -2071156.8   -2071156.8   -2054101.2    295.10225    5378065.5    100.00054    99.978368       537.92    33663.834 
11270000      67.2515    299.99077   -2071186.9   -2071186.9   -2054134.8   -203.14334    5377998.1    100.00346    99.974195       537.92     33210.81 
11280000      69.7515    299.79767   -2071168.3   -2071168.3   -2054127.2    52.142406    5377555.6    99.996834    99.972596       537.92    32755.593 
11290000      72.2515    299.94075   -2071147.5   -2071147.5   -2054098.3    572.69306    5377243.5     99.99738    99.966248       537.92    32301.427 
11300000      74.7515    299.66613   -2071128.4   -2071128.4   -2054094.8    29.360504    5377898.5    100.01294    99.962869       537.92    31848.515 
11310000      77.2515    300.57836   -2071156.8   -2071156.8   -2054071.3     479.6684    5377156.7    100.00239     99.95963       537.92    31394.268 
11320000      79.7515    299.62359   -2071139.1   -2071139.1   -2054107.9      360.018    5378113.8    100.01456    99.965249       537.92    30939.776 
11330000      82.2515    299.79889   -2071171.3   -2071171.3   -2054130.1    102.04886    5377201.2    100.00434    99.958499       537.92    30484.829 
11340000      84.7515    300.72014   -2071188.3   -2071188.3   -2054094.7   -180.00819    5377353.9    100.00018    99.965501       537.92    30031.498 
11350000      87.2515    299.71501   -2071151.7   -2071151.7   -2054115.3    218.76072    5377686.4    100.00429    99.967576       537.92    29577.011 
11360000      89.7515    300.39141   -2071182.9   -2071182.9   -2054108.1    162.23301    5377526.7    99.998606    99.970286       537.92    29123.016 
11370000      92.2515    300.24707   -2071176.3   -2071176.3   -2054109.7    105.09046    5377341.5    100.00261    99.962837       537.92    28669.279 
11380000      94.7515    299.86225   -2071156.6   -2071156.6   -2054111.8   -323.66638    5377920.4    100.00545    99.970763       537.92    28214.639 
11390000      97.2515    299.99056   -2071168.4   -2071168.4   -2054116.4     132.9452    5377128.9    99.998864    99.962632       537.92    27760.907 
11400000      99.7515    300.27753   -2071161.7   -2071161.7   -2054093.4    431.93321    5377604.9     100.0014    99.968946       537.92    27306.425 
11410000     102.2515    299.95621   -2071151.2   -2071151.2   -2054101.1    104.98278      5377594    100.00345    99.966694       537.92    26851.043 
11420000     104.7515    300.33024   -2071175.7   -2071175.7   -2054104.3    360.19777    5377470.2    100.00306    99.964783       537.92    26396.536 
11430000     107.2515    300.38727     -2071171     -2071171   -2054096.3   -67.136765    5377696.5    100.00179     99.97026       537.92    25941.004 
11440000     109.7515    299.59441   -2071141.3   -2071141.3   -2054111.8    397.95918      5377570     100.0061    99.963597       537.92    25486.288 
11450000     112.2515    299.60897   -2071169.6   -2071169.6   -2054139.2    162.60655    5377062.4    100.00115    99.959115       537.92    25031.166 
11460000     114.7515    300.50036   -2071177.5   -2071177.5   -2054096.4    310.44935    5377257.2    100.00454    99.959347       537.92    24576.372 
11470000     117.2515    299.66236   -2071121.9   -2071121.9   -2054088.4    59.860294      5377441     100.0032    99.964097       537.92     24122.13 
11480000     119.7515    299.60471   -2071161.1   -2071161.1   -2054130.9   -461.76285      5377923    100.00848    99.967786       537.92    23667.837 
11490000     122.2515    300.32181   -2071162.1   -2071162.1   -2054091.2   -43.644598      5377744     100.0014    99.971532       537.92    23213.625 
11500000     124.7515    300.24306   -2071176.9   -2071176.9   -2054110.5   -42.901184      5377538    100.00045    99.968658       537.92    22759.843 
11510000     127.2515    299.75298   -2071155.1   -2071155.1   -2054116.6    284.21615    5377431.5    100.00372    99.963404       537.92    22305.556 
11520000     129.7515    300.47791   -2071175.5   -2071175.5   -2054095.7    551.70962    5376995.3    99.990061     99.96895       537.92    21851.043 
11530000     132.2515    299.98745   -2071164.9   -2071164.9     -2054113    -202.3839    5377735.3    99.997956    99.974814       537.92    21396.083 
11540000     134.7515    299.97728   -2071134.3   -2071134.3     -2054083    90.453696    5377733.9    99.996046    99.976698       537.92    20941.467 
11550000     137.2515    300.21809   -2071196.4   -2071196.4   -2054131.4   -40.434544    5377416.9    100.00414    99.962714       537.92    20486.548 
11560000     139.7515    299.71973   -2071173.1   -2071173.1   -2054136.4    -3.134471      5376970     99.99725    99.961294       537.92    20032.372 
11570000     142.2515    299.78495   -2071162.1   -2071162.1   -2054121.7    66.191156      5377531    100.00496    99.964013       537.92    19578.096 
11580000     144.7515    300.15082   -2071144.1   -2071144.1   -2054082.9    279.64283    5377535.8    100.00628    99.962781       537.92    19124.075 
11590000     147.2515    299.41779   -2071148.4   -2071148.4   -2054128.9    88.793249    5377326.4     100.0028    99.962369       537.92    18670.001 
11600000     149.7515    300.23238   -2071143.5   -2071143.5   -2054077.7   -377.16869    5377920.2    100.00783    99.968385       537.92     18215.63 
11610000     152.2515    299.75909   -2071164.3   -2071164.3   -2054125.3   -209.69069      5377027    99.999305    99.960298       537.92    17761.445 
11620000     154.7515    300.00475     -2071180     -2071180   -2054127.1   -280.44744    5378269.8     100.0115    99.971207       537.92    17307.006 
11630000     157.2515    300.36646   -2071158.4   -2071158.4     -2054085     15.52618      5377261    99.999549    99.964404       537.92    16852.493 
11640000     159.7515    299.81732   -2071150.3   -2071150.3     -2054108   -51.957551    5377490.6    99.991782    99.976438       537.92    16398.125 
11650000     162.2515    300.00814   -2071160.6   -2071160.6   -2054107.5   -66.459828    5377567.2     100.0015    99.968148       537.92    15943.753 
11660000     164.7515    299.86378   -2071160.4   -2071160.4   -2054115.5    50.769784    5377863.5    100.00455    99.970606       537.92    15489.422 
11670000     167.2515    300.08819   -2071183.8   -2071183.8   -2054126.1   -29.692974    5377099.7    99.997258    99.963696       537.92    15035.218 
11680000     169.7515    300.14188   -2071176.1   -2071176.1   -2054115.5   -353.06835    5377505.5    99.998942    99.969556       537.92    14581.088 
11690000     172.2515     300.0562   -2071157.9   -2071157.9   -2054102.1   -325.92882    5377321.4    99.996512    99.968565       537.92    14126.819 
11700000     174.7515    299.24867   -2071128.3   -2071128.3   -2054118.4   -184.69699    5377782.9    99.999323    99.974332       537.92    13672.348 
11710000     177.2515    300.08091   -2071165.6   -2071165.6   -2054108.4    223.09015    5377647.5    99.995824    99.975314       537.92    13218.046 
11720000     179.7515    300.52711   -2071166.6   -2071166.6     -2054084   -365.09234    5377869.2    99.999344    99.975916       537.92     12763.68 
11730000     182.2515    300.13989   -2071172.4   -2071172.4   -2054111.9    14.699209    5377444.9    100.00142    99.965952       537.92    12309.503 
11740000     184.7515    299.71208   -2071167.9   -2071167.9   -2054131.6   -232.99617    5377451.6    100.00404     99.96346       537.92    11855.345 
11750000     187.2515    299.93482   -2071176.1   -2071176.1   -2054127.2   -137.02023    5377136.2    100.00198    99.959656       537.92    11401.115 
11760000     189.7515    300.40018   -2071175.1   -2071175.1   -2054099.7   -301.16473    5377307.2     100.0072    99.957614       537.92     10947.21 
11770000     192.2515    300.08724   -2071158.7   -2071158.7   -2054101.1   -138.19652    5376611.1      99.9938    99.958069       537.92    10493.011 
11780000     194.7515    300.00213   -2071179.5   -2071179.5   -2054126.8   -298.90325    5377513.9    100.00041    99.968248       537.92    10038.732 
11790000     197.2515    300.08626   -2071143.7   -2071143.7   -2054086.2   -72.832141      5377521    100.00756    99.961233       537.92     9584.413 
11800000     199.7515    300.10415   -2071169.6   -2071169.6   -2054111.1    197.91089    5377366.6    100.00873    99.957194       537.92    9130.1184 
11810000     202.2515    300.15694   -2071168.7   -2071168.7   -2054107.2    51.867088    5377697.5    99.997349    99.974718       537.92    8675.7944 
11820000     204.7515    300.00307   -2071164.2   -2071164.2   -2054111.4   -72.422386    5377716.5    100.00984    99.962583       537.92    8221.4669 
11830000     207.2515    299.29657     -2071132     -2071132   -2054119.4    222.09566    5377391.9    100.00675    99.959637       537.92    7767.2564 
11840000     209.7515    300.31351   -2071172.6   -2071172.6   -2054102.1    227.29015    5377365.4    100.00577    99.960132       537.92    7313.0581 
11850000     212.2515    300.02961   -2071181.3   -2071181.3     -2054127    167.26344    5377454.1    100.01039    99.957155       537.92    6858.8447 
11860000     214.7515    299.83911   -2071177.9   -2071177.9   -2054134.5    193.01742    5376756.2    99.992176    99.962392       537.92    6404.5808 
11870000     217.2515    299.80794     -2071171     -2071171   -2054129.3    315.91803    5377498.2     100.0006    99.967761       537.92    5950.2771 
11880000     219.7515    299.61455   -2071154.4   -2071154.4   -2054123.7    384.08966    5377080.7    99.995599    99.965002       537.92    5496.0164 
11890000     222.2515    299.58585   -2071173.4   -2071173.4   -2054144.3     335.0656    5377304.5    100.00208    99.962682       537.92    5041.7357 
11900000     224.7515    299.71458   -2071178.8   -2071178.8   -2054142.4   -150.53791    5377636.3    100.00469    99.966246       537.92    4587.5017 
11910000     227.2515    300.31445   -2071183.3   -2071183.3   -2054112.8     225.9225    5377389.9    100.00574    99.960614       537.92    4133.2352 
11920000     229.7515    300.33165   -2071199.1   -2071199.1   -2054127.6   -43.624651      5377365    99.993546    99.972339       537.92    3678.9876 
11930000     232.2515    299.94687   -2071180.9   -2071180.9   -2054131.3   -16.771808    5377464.3     100.0067    99.961033       537.92    3224.7668 
11940000     234.7515    299.85846     -2071175     -2071175   -2054130.5    2.6971082    5377489.6    100.00407    99.964131       537.92    2770.5291 
11950000     237.2515    300.38959   -2071169.8   -2071169.8   -2054095.1   -242.98072    5377571.4    100.00084    99.968885       537.92     2316.307 
11960000     239.7515    299.84923   -2071181.3   -2071181.3   -2054137.3    436.12628    5377087.7    99.999782     99.96095       537.92    1862.0748 
11970000     242.2515    300.08717   -2071161.5   -2071161.5   -2054103.9    541.67161    5377175.3     100.0007    99.961662       537.92    1407.8371 
11980000     244.7515    299.95971   -2071169.8   -2071169.8   -2054119.5   -71.508053    5377526.6    100.00454    99.964355       537.92    953.60591 
11990000     247.2515     299.6888   -2071156.6   -2071156.6   -2054121.7   -289.58526    5378215.6    100.01137    99.970333       537.92    499.37276 
12000000     249.7515    300.30961   -2071159.3   -2071159.3   -2054089.1   -348.87635    5377728.6    100.01099    99.961661       537.92    45.149622 
12000994          250    300.39075     -2071170     -2071170   -2054095.2    410.93391    5377210.2    100.00445    99.958558       537.92            0 
Loop time of 45422.1 on 96 procs for 1000000 steps with 439750 atoms

Performance: 0.476 ns/day, 50.469 hours/ns, 22.016 timesteps/s
100.0% CPU use with 96 MPI tasks x 1 OpenMP threads

MPI task timing breakdown:
Section |  min time  |  avg time  |  max time  |%varavg| %total
---------------------------------------------------------------
Pair    | 15313      | 24078      | 44399      |6516.9 | 53.01
Neigh   | 40.488     | 57.19      | 67.93      | 119.1 |  0.13
Comm    | 452.58     | 5305.3     | 23760      |9505.0 | 11.68
Output  | 1.8917     | 1.8925     | 1.9147     |   0.2 |  0.00
Modify  | 431        | 15914      | 24851      |8816.3 | 35.04
Other   |            | 65.75      |            |       |  0.14

Nlocal:        4580.73 ave        5144 max        3851 min
Histogram: 16 10 9 1 1 5 2 11 22 19
Nghost:        8919.48 ave       10436 max        7671 min
Histogram: 12 6 10 20 15 9 0 5 13 6
Neighs:         0.00000 ave           0 max           0 min
Histogram: 96 0 0 0 0 0 0 0 0 0
FullNghs:      839557.0 ave 1.09578e+06 max      584477 min
Histogram: 12 21 11 4 0 0 7 10 15 16

Total # of neighbors = 80597458
Ave neighs/atom = 183.28018
Neighbor list builds = 2353
Dangerous builds = 0
System init for write_restart ...
System init for write_data ...
Total wall time: 12:37:03
