LAMMPS (29 Sep 2021)
  using 1 OpenMP thread(s) per MPI task
Reading restart file ...
  restart file = 29 Sep 2021, LAMMPS = 29 Sep 2021
  restoring atom style atomic from restart
  orthogonal box = (-0.51112818 -0.52180835 0.0000000) to (101.83493 101.84561 530.60000)
  2 by 2 by 6 MPI processor grid
  pair style eam/alloy/gpu stores no restart info
  425652 atoms
  read_restart CPU = 0.089 seconds
Resetting global fix info from restart file:
  fix style: npt/gpu, fix ID: 2

CITE-CITE-CITE-CITE-CITE-CITE-CITE-CITE-CITE-CITE-CITE-CITE-CITE

Your simulation uses code contributions which should be cited:
- GPU package (short-range, long-range and three-body potentials):
The log file lists these citations in BibTeX format.

CITE-CITE-CITE-CITE-CITE-CITE-CITE-CITE-CITE-CITE-CITE-CITE-CITE


--------------------------------------------------------------------------
- Using acceleration for eam/alloy:
-  with 12 proc(s) per device.
-  Horizontal vector operations: ENABLED
-  Shared memory system: No
--------------------------------------------------------------------------
Device 0: Tesla V100-SXM2-32GB, 80 CUs, 28/32 GB, 1.5 GHZ (Mixed Precision)
Device 1: Tesla V100-SXM2-32GB, 80 CUs, 1.5 GHZ (Mixed Precision)
--------------------------------------------------------------------------

Initializing Device and compiling on process 0...Done.
Initializing Devices 0-1 on core 0...Done.
Initializing Devices 0-1 on core 1...Done.
Initializing Devices 0-1 on core 2...Done.
Initializing Devices 0-1 on core 3...Done.
Initializing Devices 0-1 on core 4...Done.
Initializing Devices 0-1 on core 5...Done.
Initializing Devices 0-1 on core 6...Done.
Initializing Devices 0-1 on core 7...Done.
Initializing Devices 0-1 on core 8...Done.
Initializing Devices 0-1 on core 9...Done.
Initializing Devices 0-1 on core 10...Done.
Initializing Devices 0-1 on core 11...Done.

All restart file global fix info was re-assigned
Unused restart file peratom fix info:
  fix style: STORE, fix ID: spatialbins_COMPUTE_STORE
Setting up Verlet run ...
  Unit style    : metal
  Current step  : 11000158
  Time step     : 0.00025
Per MPI rank memory allocation (min/avg/max) = 6.635 | 8.502 | 9.447 Mbytes
Step Time Temp PotEng E_pair TotEng Press Volume Lx Ly Lz CPULeft 
11000158            0    300.12069   -1767713.3   -1767713.3   -1751200.7    3.1087697    5559044.5    102.34606    102.36742        530.6            0 
11010000       2.4605    300.31016   -1767706.7   -1767706.7   -1751183.7   -106.62875    5558780.8    102.34371    102.36492        530.6    7214.0641 
11020000       4.9605    300.52573   -1767713.4   -1767713.4   -1751178.6   -10.938631      5557372    102.32751    102.35518        530.6    7162.3798 
11030000       7.4605     299.4951   -1767697.4   -1767697.4   -1751219.3   -88.566302    5557649.8    102.32573    102.36208        530.6     7097.775 
11040000       9.9605     299.9879   -1767695.8   -1767695.8   -1751190.6   -26.357218    5558864.8    102.34726    102.36292        530.6    7028.6113 
11050000      12.4605    299.29678   -1767695.8   -1767695.8   -1751228.5    16.498859    5558659.6    102.34348    102.36292        530.6    6957.3115 
11060000      14.9605    300.54155   -1767721.4   -1767721.4   -1751185.7    94.970126    5558742.3     102.3444    102.36352        530.6    6885.3705 
11070000      17.4605    300.22693   -1767700.7   -1767700.7   -1751182.3    86.711161    5560265.8    102.35146    102.38451        530.6    6813.5914 
11080000      19.9605    300.09077   -1767701.2   -1767701.2   -1751190.3    106.01945    5560396.6    102.36018    102.37819        530.6    6740.7259 
11090000      22.4605    299.81047   -1767708.1   -1767708.1   -1751212.6   -4.8373221    5560033.6    102.35375    102.37795        530.6    6668.2993 
11100000      24.9605    299.08061   -1767701.8   -1767701.8   -1751246.5    33.953335    5559714.7    102.35084    102.37498        530.6    6595.7983 
11110000      27.4605    300.08957   -1767721.1   -1767721.1   -1751210.3    51.602973    5559299.8     102.3512    102.36699        530.6    6523.0803 
11120000      29.9605    299.64757   -1767719.3   -1767719.3   -1751232.7   -55.685669    5558316.4    102.34431    102.35577        530.6    6450.1144 
11130000      32.4605    299.44848   -1767690.7   -1767690.7   -1751215.2   -158.60601    5558306.5    102.34309     102.3568        530.6    6376.9641 
11140000      34.9605    299.71026   -1767696.2   -1767696.2   -1751206.2   -204.23674      5557711     102.3339    102.35503        530.6    6303.8522 
11150000      37.4605    299.54553   -1767697.8   -1767697.8   -1751216.9   -89.572207    5557723.4    102.33525     102.3539        530.6    6230.7774 
11160000      39.9605     300.2669   -1767701.5   -1767701.5   -1751180.9    56.487148    5557596.8    102.33565    102.35118        530.6    6157.6524 
11170000      42.4605     299.9382   -1767690.5   -1767690.5   -1751187.9    105.66692    5558474.1    102.34592    102.35706        530.6    6084.4024 
11180000      44.9605    299.84176   -1767709.3   -1767709.3   -1751212.1    109.24192    5558852.1    102.35116    102.35878        530.6    6011.2252 
11190000      47.4605    299.62833   -1767706.6   -1767706.6   -1751221.2    33.092749    5560340.9    102.36216    102.37519        530.6    5938.0649 
11200000      49.9605    300.34612   -1767730.8   -1767730.8   -1751205.8    38.694821    5560331.9    102.35478    102.38241        530.6    5864.7495 
11210000      52.4605    300.30529   -1767712.6   -1767712.6   -1751189.9    29.461215      5560768    102.35966    102.38555        530.6    5791.3979 
11220000      54.9605    300.39433   -1767718.6   -1767718.6     -1751191    19.507334    5559935.5    102.36059     102.3693        530.6    5718.1916 
11230000      57.4605    300.38751   -1767730.6   -1767730.6   -1751203.4    49.610281    5558623.3    102.34309    102.36264        530.6    5645.0751 
11240000      59.9605    299.97442   -1767697.1   -1767697.1   -1751192.6   -106.92456    5558537.5    102.33711    102.36704        530.6    5571.8089 
11250000      62.4605    300.57547   -1767711.2   -1767711.2   -1751173.6    16.862621    5557734.3    102.33639    102.35297        530.6    5498.6445 
11260000      64.9605    300.17535   -1767712.1   -1767712.1   -1751196.6   -3.7901251    5557101.8    102.33012    102.34759        530.6    5425.3979 
11270000      67.4605      300.096     -1767718     -1767718   -1751206.8   -28.278466    5557595.7    102.32773    102.35908        530.6    5352.1075 
11280000      69.9605    299.97697   -1767699.9   -1767699.9   -1751195.2   -1.7668525    5558326.4    102.33994    102.36032        530.6    5278.8484 
11290000      72.4605    300.00534   -1767710.7   -1767710.7   -1751204.5   -25.700413    5559158.1    102.34336    102.37222        530.6    5205.6861 
11300000      74.9605    300.36266   -1767719.9   -1767719.9   -1751194.1   -27.029443    5559939.7    102.35681    102.37316        530.6    5132.3934 
11310000      77.4605    300.84347   -1767734.2   -1767734.2   -1751181.9    8.7236744    5560446.6    102.35564    102.38366        530.6    5059.0614 
11320000      79.9605    300.13345     -1767725     -1767725   -1751211.8    66.054823    5560374.5    102.35816    102.37982        530.6    4985.7017 
11330000      82.4605    299.77346   -1767720.7   -1767720.7   -1751227.2    103.62826    5559656.8    102.34961    102.37515        530.6    4912.3614 
11340000      84.9605    300.43468   -1767733.2   -1767733.2   -1751203.4    164.21613      5558982     102.3435    102.36884        530.6    4839.0576 
11350000      87.4605    300.33529   -1767727.5   -1767727.5   -1751203.1    29.375519    5558526.5    102.33979    102.36416        530.6    4765.7021 
11360000      89.9605    300.74019     -1767730     -1767730   -1751183.4   -88.904952    5558331.7    102.33571    102.36465        530.6    4692.4616 
11370000      92.4605    299.93308   -1767707.5   -1767707.5   -1751205.3   -96.925943    5557954.7    102.34049    102.35292        530.6    4619.1268 
11380000      94.9605    300.34511   -1767706.5   -1767706.5   -1751181.6   -39.365506    5557580.2    102.33526    102.35126        530.6    4545.7988 
11390000      97.4605    299.71117   -1767715.5   -1767715.5   -1751225.5    18.795124    5557672.3    102.33879    102.34943        530.6    4472.4894 
11400000      99.9605    300.50151     -1767719     -1767719   -1751185.5    81.966467    5558250.6    102.33981    102.35906        530.6    4399.1435 
11410000     102.4605    300.23866   -1767698.1   -1767698.1   -1751179.1    60.006635    5559150.5    102.34963    102.36581        530.6    4325.8534 
11420000     104.9605    299.67588   -1767723.7   -1767723.7   -1751235.6      39.5072    5559647.6    102.35196    102.37263        530.6     4252.556 
11430000     107.4605    300.24562   -1767700.1   -1767700.1   -1751180.6   -4.3865519    5560290.2    102.34834    102.38808        530.6    4179.1972 
11440000     109.9605    300.11348   -1767729.9   -1767729.9   -1751217.7    91.344228    5560311.7    102.35428    102.38254        530.6    4105.9167 
11450000     112.4605     300.0609   -1767711.8   -1767711.8   -1751202.5   -74.532586      5560839    102.36489    102.38163        530.6    4032.5691 
11460000     114.9605    299.97742   -1767707.9   -1767707.9   -1751203.3    46.047887      5559583    102.35022    102.37318        530.6    3959.2795 
11470000     117.4605    300.53781   -1767734.2   -1767734.2   -1751198.7    10.254074    5558649.8    102.33915    102.36707        530.6    3885.9887 
11480000     119.9605     300.2254   -1767722.9   -1767722.9   -1751204.6   -43.611909    5558420.3    102.34656    102.35543        530.6    3812.6656 
11490000     122.4605    300.29752   -1767726.1   -1767726.1   -1751203.8   -162.57021    5558461.8    102.34079    102.36196        530.6    3739.3386 
11500000     124.9605    299.94278   -1767685.2   -1767685.2   -1751182.4   -153.45116    5558026.7     102.3357    102.35904        530.6    3666.0454 
11510000     127.4605     300.0271   -1767717.1   -1767717.1   -1751209.7   -98.409987    5558064.5    102.33352    102.36192        530.6    3592.7681 
11520000     129.9605    300.00134   -1767716.4   -1767716.4   -1751210.4   -49.395222    5559277.4    102.34956    102.36822        530.6    3519.4651 
11530000     132.4605    299.83864   -1767713.4   -1767713.4   -1751216.4    14.676731      5559593    102.34983    102.37376        530.6    3446.2033 
11540000     134.9605    300.09209   -1767694.2   -1767694.2   -1751183.2    167.51379    5559718.4    102.35101    102.37488        530.6    3372.9127 
11550000     137.4605     300.0304     -1767735     -1767735   -1751227.5    153.58779    5560602.9    102.35722    102.38496        530.6    3299.6157 
11560000     139.9605    299.90921     -1767712     -1767712     -1751211    38.664261    5560813.8    102.36602    102.38004        530.6    3226.2784 
11570000     142.4605    300.07967   -1767717.4   -1767717.4   -1751207.1    66.152349    5559401.1    102.35474    102.36531        530.6    3152.9872 
11580000     144.9605    300.23204   -1767727.7   -1767727.7     -1751209    4.3392176    5559193.6    102.35115    102.36508        530.6    3079.7046 
11590000     147.4605    299.51908   -1767693.1   -1767693.1   -1751213.7   -39.454094    5558759.5    102.34366    102.36458        530.6    3006.4386 
11600000     149.9605    300.42066   -1767709.6   -1767709.6   -1751180.5   -75.383764    5557499.5    102.33571    102.34932        530.6     2933.147 
11610000     152.4605    299.91747   -1767733.4   -1767733.4   -1751232.1    47.038177    5557584.5    102.32917    102.35743        530.6     2859.832 
11620000     154.9605    300.19052   -1767707.1   -1767707.1   -1751190.7   -117.86136    5558666.4    102.34124    102.36528        530.6    2786.5167 
11630000     157.4605    299.95778   -1767702.6   -1767702.6     -1751199   -75.157462    5558893.6    102.34416    102.36654        530.6     2713.217 
11640000     159.9605    300.16431   -1767724.2   -1767724.2   -1751209.3     59.97905    5558784.4    102.34307    102.36562        530.6    2639.9132 
11650000     162.4605    299.78627   -1767729.3   -1767729.3   -1751235.2    151.71054    5559068.3    102.34695    102.36697        530.6    2566.5976 
11660000     164.9605     299.5401   -1767728.3   -1767728.3   -1751247.7   -28.785107    5560040.8    102.36174    102.37008        530.6    2493.2977 
11670000     167.4605    300.27011   -1767732.3   -1767732.3   -1751211.6    65.805146    5560037.6    102.35527     102.3765        530.6    2419.9993 
11680000     169.9605    300.60773   -1767741.1   -1767741.1   -1751201.7     105.9978    5559763.9    102.35598    102.37075        530.6     2346.691 
11690000     172.4605    300.25988   -1767708.7   -1767708.7   -1751188.5    -11.81777    5559393.9     102.3456    102.37432        530.6    2273.3938 
11700000     174.9605    299.85467   -1767724.3   -1767724.3   -1751226.4     17.00968    5559069.4      102.341    102.37294        530.6    2200.1051 
11710000     177.4605    300.09517   -1767695.8   -1767695.8   -1751184.6   -39.706355    5558662.4    102.34641    102.36003        530.6    2126.8112 
11720000     179.9605    300.63425   -1767723.9   -1767723.9     -1751183   -78.916044    5558072.4     102.3358    102.35979        530.6    2053.5254 
11730000     182.4605    299.95512   -1767694.3   -1767694.3   -1751190.8   -30.381035    5557969.6    102.33602    102.35767        530.6    1980.2367 
11740000     184.9605    299.66925   -1767704.1   -1767704.1   -1751216.3    57.361784    5557738.3    102.33595    102.35349        530.6    1906.9304 
11750000     187.4605    300.11328   -1767729.7   -1767729.7   -1751217.5    71.400031    5558050.1    102.34136    102.35382        530.6    1833.6335 
11760000     189.9605    300.19164   -1767722.3   -1767722.3   -1751205.8   -28.324178    5559229.5    102.34525    102.37164        530.6    1760.3368 
11770000     192.4605    299.24813   -1767686.9   -1767686.9   -1751222.4   -62.554775    5559786.7    102.35507    102.37208        530.6    1687.0266 
11780000     194.9605    300.00421   -1767709.4   -1767709.4   -1751203.3   -32.317148    5560172.9    102.36386     102.3704        530.6    1613.7281 
11790000     197.4605    300.54302   -1767731.4   -1767731.4   -1751195.6    44.355391    5560060.4    102.36175    102.37044        530.6    1540.4382 
11800000     199.9605    299.73104   -1767700.7   -1767700.7   -1751209.6    23.356295    5560131.6    102.35885    102.37465        530.6    1467.1388 
11810000     202.4605    299.94541   -1767709.3   -1767709.3   -1751206.4   -26.627136    5559985.4    102.35335    102.37746        530.6    1393.8467 
11820000     204.9605    299.71994   -1767697.8   -1767697.8   -1751207.3   -70.767005      5559481    102.35151    102.37001        530.6     1320.545 
11830000     207.4605    299.85542   -1767691.4   -1767691.4   -1751193.4   -54.955529    5558846.6    102.34838    102.36146        530.6    1247.2503 
11840000     209.9605    299.76439   -1767700.6   -1767700.6   -1751207.6    35.295666    5558217.8    102.34018    102.35808        530.6    1173.9496 
11850000     212.4605    299.49087   -1767715.4   -1767715.4   -1751237.5    22.633832    5557842.1    102.33343    102.35792        530.6    1100.6512 
11860000     214.9605    299.90255   -1767697.1   -1767697.1   -1751196.6   -21.325709    5558094.6    102.33877    102.35722        530.6     1027.358 
11870000     217.4605    300.52156     -1767719     -1767719   -1751184.4   -6.2761367    5558730.2    102.34695    102.36075        530.6    954.06026 
11880000     219.9605    300.63224   -1767727.3   -1767727.3   -1751186.7   -13.726453    5558804.3    102.34633    102.36274        530.6    880.75995 
11890000     222.4605    300.17398   -1767726.4   -1767726.4   -1751210.9    72.784539    5559006.5    102.34317    102.36961        530.6    807.46011 
11900000     224.9605    299.75197   -1767701.7   -1767701.7   -1751209.5    101.26231    5559759.2    102.34807    102.37858        530.6    734.15661 
11910000     227.4605    300.17184     -1767714     -1767714   -1751198.6    12.889182      5560244    102.35107     102.3845        530.6    660.85544 
11920000     229.9605    300.20148     -1767716     -1767716   -1751199.1   -47.132349    5560136.1    102.35051    102.38308        530.6    587.55146 
11930000     232.4605    299.99086     -1767696     -1767696   -1751190.6    2.5248114    5559670.7    102.35384    102.37118        530.6     514.2571 
11940000     234.9605    300.07225   -1767695.6   -1767695.6   -1751185.7   -10.988519    5559354.3    102.34902    102.37017        530.6    440.96338 
11950000     237.4605    300.47174   -1767740.2   -1767740.2   -1751208.3    31.531181    5558580.3    102.33819    102.36675        530.6     367.6626 
11960000     239.9605    300.55929   -1767705.3   -1767705.3   -1751168.6   -87.681542    5559146.5    102.34089    102.37447        530.6    294.36185 
11970000     242.4605    300.49765   -1767724.4   -1767724.4   -1751191.1    59.346309    5558591.5     102.3476    102.35754        530.6    221.06177 
11980000     244.9605    300.15462   -1767716.4   -1767716.4     -1751202   -17.998512    5558862.5    102.34086    102.36927        530.6    147.76027 
11990000     247.4605    299.51003   -1767710.4   -1767710.4   -1751231.4   -92.800913    5559081.2    102.34998    102.36418        530.6    74.459266 
12000000     249.9605    300.55388   -1767738.5   -1767738.5   -1751202.1    48.893836      5558998    102.34182    102.37081        530.6    1.1581631 
12000158          250    299.77706   -1767702.2   -1767702.2   -1751208.6    15.747663    5559164.7    102.35306    102.36263        530.6            0 
Loop time of 7330.15 on 24 procs for 1000000 steps with 425652 atoms

Performance: 2.947 ns/day, 8.145 hours/ns, 136.423 timesteps/s
99.9% CPU use with 24 MPI tasks x 1 OpenMP threads

MPI task timing breakdown:
Section |  min time  |  avg time  |  max time  |%varavg| %total
---------------------------------------------------------------
Pair    | 2969.1     | 3679.5     | 4209.3     | 556.8 | 50.20
Neigh   | 0.27872    | 0.4717     | 0.5902     |  16.3 |  0.01
Comm    | 709.95     | 777.5      | 867.11     | 166.0 | 10.61
Output  | 3.4598     | 3.4609     | 3.4628     |   0.1 |  0.05
Modify  | 2075.5     | 2541       | 3162       | 606.6 | 34.66
Other   |            | 328.3      |            |       |  4.48

Nlocal:        17735.5 ave       19114 max       15515 min
Histogram: 4 0 4 0 0 0 0 3 8 5
Nghost:        17772.2 ave       20739 max       14330 min
Histogram: 8 0 0 0 0 0 4 6 2 4
Neighs:         0.00000 ave           0 max           0 min
Histogram: 24 0 0 0 0 0 0 0 0 0

Total # of neighbors = 0
Ave neighs/atom = 0.0000000
Neighbor list builds = 2515
Dangerous builds = 0
System init for write_restart ...


---------------------------------------------------------------------
      Device Time Info (average): 
---------------------------------------------------------------------
Data Transfer:   472.4634 s.
Neighbor copy:   0.0907 s.
Neighbor build:  6.1527 s.
Force calc:      2039.6884 s.
Device Overhead: 1315.9341 s.
Average split:   1.0000.
Lanes / atom:    4.
Vector width:    32.
Max Mem / Proc:  32.62 MB.
CPU Neighbor:    1.1151 s.
CPU Cast/Pack:   458.9237 s.
CPU Driver_Time: 22.2150 s.
CPU Idle_Time:   947.7436 s.
---------------------------------------------------------------------


--------------------------------------------------------------------------
- Using acceleration for eam/alloy:
-  with 12 proc(s) per device.
-  Horizontal vector operations: ENABLED
-  Shared memory system: No
--------------------------------------------------------------------------
Device 0: Tesla V100-SXM2-32GB, 80 CUs, 28/32 GB, 1.5 GHZ (Mixed Precision)
Device 1: Tesla V100-SXM2-32GB, 80 CUs, 1.5 GHZ (Mixed Precision)
--------------------------------------------------------------------------

Initializing Device and compiling on process 0...Done.
Initializing Devices 0-1 on core 0...Done.
Initializing Devices 0-1 on core 1...Done.
Initializing Devices 0-1 on core 2...Done.
Initializing Devices 0-1 on core 3...Done.
Initializing Devices 0-1 on core 4...Done.
Initializing Devices 0-1 on core 5...Done.
Initializing Devices 0-1 on core 6...Done.
Initializing Devices 0-1 on core 7...Done.
Initializing Devices 0-1 on core 8...Done.
Initializing Devices 0-1 on core 9...Done.
Initializing Devices 0-1 on core 10...Done.
Initializing Devices 0-1 on core 11...Done.

System init for write_data ...

--------------------------------------------------------------------------
- Using acceleration for eam/alloy:
-  with 12 proc(s) per device.
-  Horizontal vector operations: ENABLED
-  Shared memory system: No
--------------------------------------------------------------------------
Device 0: Tesla V100-SXM2-32GB, 80 CUs, 28/32 GB, 1.5 GHZ (Mixed Precision)
Device 1: Tesla V100-SXM2-32GB, 80 CUs, 1.5 GHZ (Mixed Precision)
--------------------------------------------------------------------------

Initializing Device and compiling on process 0...Done.
Initializing Devices 0-1 on core 0...Done.
Initializing Devices 0-1 on core 1...Done.
Initializing Devices 0-1 on core 2...Done.
Initializing Devices 0-1 on core 3...Done.
Initializing Devices 0-1 on core 4...Done.
Initializing Devices 0-1 on core 5...Done.
Initializing Devices 0-1 on core 6...Done.
Initializing Devices 0-1 on core 7...Done.
Initializing Devices 0-1 on core 8...Done.
Initializing Devices 0-1 on core 9...Done.
Initializing Devices 0-1 on core 10...Done.
Initializing Devices 0-1 on core 11...Done.

Total wall time: 2:02:15
