LAMMPS (29 Sep 2021)
  using 1 OpenMP thread(s) per MPI task
Reading data file ...
  orthogonal box = (0.59641575 0.60318742 0.0000000) to (99.923675 99.916903 535.86400)
  3 by 2 by 16 MPI processor grid
  reading atoms ...
  444900 atoms
  reading velocities ...
  444900 velocities
  read_data CPU = 4.858 seconds
222450 atoms in group g_left
222450 atoms in group g_right

CITE-CITE-CITE-CITE-CITE-CITE-CITE-CITE-CITE-CITE-CITE-CITE-CITE

Your simulation uses code contributions which should be cited:
- @article{cjiang2012
The log file lists these citations in BibTeX format.

CITE-CITE-CITE-CITE-CITE-CITE-CITE-CITE-CITE-CITE-CITE-CITE-CITE

Neighbor list info ...
  update every 1 steps, delay 10 steps, check yes
  max neighbors/atom: 2000, page size: 100000
  master list distance cutoff = 8.28721
  ghost atom cutoff = 8.28721
  binsize = 4.143605, bins = 24 24 130
  3 neighbor lists, perpetual/occasional/extra = 3 0 0
  (1) pair eam/alloy, perpetual, skip from (3)
      attributes: half, newton on
      pair build: skip
      stencil: none
      bin: none
  (2) pair edip/multi, perpetual
      attributes: full, newton on
      pair build: full/bin/atomonly
      stencil: full/bin/3d
      bin: standard
  (3) neighbor class addition, perpetual, half/full from (2)
      attributes: half, newton on
      pair build: halffull/newton
      stencil: none
      bin: none
Setting up Verlet run ...
  Unit style    : metal
  Current step  : 0
  Time step     : 0.00025
Per MPI rank memory allocation (min/avg/max) = 10.31 | 12.50 | 16.39 Mbytes
Step Time Temp Press PotEng KinEng TotEng Volume 
       0            0    7482.8647     83594.33   -2213729.8    430322.41   -1783407.4    5286062.1 
     100        0.025    7482.0228     84151.93   -2213734.6    430273.99   -1783460.6    5276197.5 
     200         0.05    7482.3912     84111.27     -2213759    430295.18   -1783463.8      5266333 
     300        0.075    7482.0329    83919.499   -2213723.2    430274.57   -1783448.7    5256468.4 
     400          0.1    7482.2583     83585.68   -2213756.3    430287.53   -1783468.8    5246603.9 
     500        0.125    7481.6778    84464.941   -2213767.1    430254.15   -1783512.9    5236739.3 
     600         0.15    7480.9193    84275.044   -2213742.4    430210.53   -1783531.9    5226874.8 
     700        0.175    7480.9144    84870.996   -2213728.3    430210.25     -1783518    5217010.2 
     800          0.2    7481.3493    84610.566   -2213744.2    430235.26   -1783508.9    5207145.6 
     900        0.225    7481.2959    84676.173   -2213756.9    430232.19   -1783524.7    5197281.1 
    1000         0.25    7480.5713    85193.121   -2213739.1    430190.52   -1783548.6    5187416.5 
    1100        0.275    7480.4155    85321.681   -2213744.9    430181.56   -1783563.3      5177552 
    1200          0.3    7480.0551    85515.247   -2213733.4    430160.83   -1783572.6    5167687.4 
    1300        0.325    7480.0895    85262.476   -2213747.8    430162.81   -1783584.9    5157822.8 
    1400         0.35    7479.6874    85949.053   -2213741.5    430139.69   -1783601.8    5147958.3 
    1500        0.375    7479.5429     85070.58   -2213740.4    430131.38     -1783609    5138093.7 
    1600          0.4    7479.8993     86581.44     -2213755    430151.88   -1783603.1    5128229.2 
    1700        0.425    7479.7372    85807.365   -2213732.7    430142.55   -1783590.2    5118364.6 
    1800         0.45    7480.2806    86153.307   -2213753.1     430173.8   -1783579.3      5108500 
    1900        0.475    7479.7362    86427.882   -2213728.3    430142.49   -1783585.8    5098635.5 
    2000          0.5    7479.9575    86710.583     -2213753    430155.22   -1783597.7    5088770.9 
    2100        0.525    7480.0328    86826.399   -2213745.1    430159.55   -1783585.6    5078906.4 
    2200         0.55    7480.8257     86879.33   -2213754.4    430205.15   -1783549.3    5069041.8 
    2300        0.575    7484.4461    86546.036   -2213936.2    430413.35   -1783522.9    5059177.2 
    2400          0.6    7496.9741    87391.184   -2214657.6    431133.81   -1783523.8    5049312.7 
    2500        0.625    7488.3788    88393.406   -2214180.4    430639.51   -1783540.9    5039448.1 
    2600         0.65    7424.0135    90601.865   -2210484.2    426938.01   -1783546.2    5029583.6 
    2700        0.675    7379.0895    96207.997     -2207892    424354.53   -1783537.5      5019719 
    2800          0.7    7316.2193    101693.59   -2204282.3    420739.01   -1783543.3    5009854.5 
    2900        0.725    7279.1269    107781.73   -2202166.2    418605.91   -1783560.3    4999989.9 
    3000         0.75    7212.4994    113079.05     -2198333    414774.32   -1783558.7    4990125.3 
    3100        0.775    7167.5782    118251.77     -2195725    412191.01     -1783534    4980260.8 
    3200          0.8    7110.1396    122868.08   -2192404.1    408887.84   -1783516.3    4970396.2 
    3300        0.825    7060.3878    129208.31   -2189540.9    406026.73   -1783514.1    4960531.7 
    3400         0.85    7001.9922    134725.41   -2186181.3    402668.53   -1783512.8    4950667.1 
    3500        0.875    6950.6612    139364.34   -2183234.2    399716.61   -1783517.6    4940802.5 
    3600          0.9    6895.8011    144300.54   -2180110.3    396561.72   -1783548.6      4930938 
    3700        0.925    6842.0209     150383.3   -2177062.3    393468.95   -1783593.3    4921073.4 
    3800         0.95    6785.8821    155909.98   -2173845.5    390240.53     -1783605    4911208.9 
    3900        0.975    6732.2698    160822.51   -2170728.4    387157.41   -1783570.9    4901344.3 
    4000            1    6679.8836    166724.87   -2167678.3     384144.8   -1783533.5    4891479.7 
    4100        1.025    6625.5519     172464.6   -2164547.4    381020.31   -1783527.1    4881615.2 
    4200         1.05    6577.2981    176949.88   -2161785.2    378245.35   -1783539.8    4871750.6 
    4300        1.075    6603.6113    177651.51   -2163303.3    379758.56   -1783544.8    4861886.1 
    4400          1.1    6597.7076    176499.85     -2162954    379419.05   -1783534.9    4852021.5 
    4500        1.125    6555.2736    175806.77   -2160504.2    376978.77   -1783525.4    4842156.9 
    4600         1.15    6578.1305    176302.69   -2161816.1    378293.22   -1783522.8    4832292.4 
    4700        1.175    6573.4799    178272.71   -2161530.1    378025.77   -1783504.4    4822427.8 
    4800          1.2    6537.8103    179889.82   -2159436.3     375974.5   -1783461.8    4812563.3 
    4900        1.225    6578.5452    178586.29   -2161740.4    378317.06   -1783423.3    4802698.7 
    5000         1.25    6539.6091    178364.16   -2159484.7    376077.94   -1783406.7    4792834.2 
    5100        1.275     6539.776    179751.47   -2159497.9    376087.54   -1783410.4    4782969.6 
    5200          1.3    6553.8976    180657.76   -2160308.1    376899.64   -1783408.4      4773105 
    5300        1.325    6520.1365    182139.64   -2158351.7    374958.11   -1783393.6    4763240.5 
    5400         1.35    6543.5165    182127.26   -2159686.9    376302.64   -1783384.3    4753375.9 
    5500        1.375    6491.5054    183031.01   -2156697.9     373311.6   -1783386.2    4743511.4 
    5600          1.4    6443.9566    188149.91   -2153974.1    370577.18   -1783396.9    4733646.8 
    5700        1.425    6392.0643    191533.45   -2150993.2    367592.97   -1783400.2    4723782.2 
    5800         1.45     6297.536    194985.48   -2145547.1    362156.87   -1783390.3    4713917.7 
    5900        1.475    6255.7991    201031.61   -2143127.8    359756.68   -1783371.1    4704053.1 
    6000          1.5    6179.1555     205806.8   -2138694.5    355349.08   -1783345.4    4694188.6 
    6100        1.525    6109.9166    210366.45   -2134691.7    351367.31   -1783324.3      4684324 
    6200         1.55     6037.272    215485.09   -2130505.5    347189.68   -1783315.8    4674459.4 
    6300        1.575     5974.841    221461.94   -2126916.2    343599.42   -1783316.8    4664594.9 
    6400          1.6    5903.3077    226102.85   -2122807.9     339485.7   -1783322.2    4654730.3 
    6500        1.625    5831.9754    231722.27   -2118713.8    335383.54   -1783330.3    4644865.8 
    6600         1.65    5765.7813    237731.79   -2114909.1    331576.88   -1783332.2    4635001.2 
    6700        1.675    5699.9562    243138.64   -2111119.2    327791.42   -1783327.7    4625136.6 
    6800          1.7    5652.9029    248952.94   -2108418.5     325085.5     -1783333    4615272.1 
    6900        1.725    5594.9285     254400.7   -2105104.2    321751.52   -1783352.7    4605407.5 
    7000         1.75    5546.0787    259442.39   -2102311.4    318942.28   -1783369.1      4595543 
    7100        1.775    5507.9966    265403.97   -2100109.8    316752.27   -1783357.5    4585678.4 
    7200          1.8    5475.8278    270872.22     -2098223    314902.31   -1783320.7    4575813.9 
    7300        1.825    5440.4839    276113.57   -2096162.3    312869.77   -1783292.5    4565949.3 
    7400         1.85    5407.5269    280724.94   -2094269.1    310974.49   -1783294.6    4556084.7 
    7500        1.875    5370.6493    287331.25   -2092158.9    308853.74   -1783305.2    4546220.2 
    7600          1.9    5341.2468    293277.94     -2090464    307162.87   -1783301.2    4536355.6 
    7700        1.925    5315.5485     298410.8   -2088977.7    305685.02   -1783292.7    4526491.1 
    7800         1.95    5280.7518    304407.82   -2086982.2    303683.94   -1783298.3    4516626.5 
    7900        1.975    5250.3999    310064.53   -2085253.4    301938.47   -1783314.9    4506761.9 
    8000            2    5225.9075    316646.29     -2083857    300529.97   -1783327.1    4496897.4 
    8100        2.025    5186.4506    322637.74   -2081594.2    298260.89   -1783333.3    4487032.8 
    8200         2.05    5146.9659    329239.38   -2079325.8    295990.22   -1783335.5    4477168.3 
    8300        2.075    5096.5264     336151.5   -2076429.2    293089.56   -1783339.7    4467303.7 
    8400          2.1     5051.188    342975.01     -2073825    290482.25   -1783342.7    4457439.1 
    8500        2.125    4998.2235    350569.57   -2070776.8    287436.38   -1783340.4    4447574.6 
    8600         2.15    4938.6546    357999.95   -2067355.9    284010.71   -1783345.2      4437710 
    8700        2.175    4875.0963    365590.89   -2063724.4    280355.62   -1783368.8    4427845.5 
    8800          2.2    4806.0877    372822.39   -2059787.7     276387.1   -1783400.6    4417980.9 
    8900        2.225    4738.8911     381450.6   -2055944.2    272522.77   -1783421.4    4408116.3 
    9000         2.25    4671.3603    389520.07   -2052064.2    268639.23     -1783425    4398251.8 
    9100        2.275    4616.0884    395506.52   -2048878.9    265460.67   -1783418.2    4388387.2 
    9200          2.3    4609.6189    397986.98   -2048502.9    265088.62   -1783414.2    4378522.7 
    9300        2.325    4579.5876    399166.46   -2046784.2    263361.59   -1783422.7    4368658.1 
    9400         2.35    4548.9416    400032.05   -2045037.4    261599.21   -1783438.2    4358793.5 
    9500        2.375    4557.5851       401737   -2045555.1    262096.28   -1783458.8      4348929 
    9600          2.4    4527.5667    403040.54   -2043847.7    260369.99   -1783477.7    4339064.4 
    9700        2.425    4510.3928    402667.75   -2042873.4    259382.36     -1783491    4329199.9 
    9800         2.45    4511.7747    401038.13   -2042956.8    259461.83   -1783494.9    4319335.3 
    9900        2.475    4463.6843    402987.76   -2040183.4    256696.26   -1783487.1    4309470.8 
   10000          2.5    4480.1437    402028.58   -2041112.9     257642.8   -1783470.1    4299606.2 
   10100        2.525    4440.8367     404405.8   -2038835.4    255382.35   -1783453.1    4289741.6 
   10200         2.55    4408.7767     405026.3     -2036989    253538.65   -1783450.4    4279877.1 
   10300        2.575    4399.2756    405749.99   -2036451.6    252992.26   -1783459.3    4270012.5 
   10400          2.6    4323.1617    411293.34   -2032079.3    248615.13   -1783464.2      4260148 
   10500        2.625    4265.7082    421764.26   -2028762.3    245311.11   -1783451.2    4250283.4 
   10600         2.65    4159.2335     433775.1   -2022622.8    239187.99   -1783434.8    4240418.8 
   10700        2.675     4062.937    446915.97   -2017088.2     233650.2     -1783438    4230554.3 
   10800          2.7     3978.398     461961.1   -2012248.6    228788.56   -1783460.1    4220689.7 
   10900        2.725    3869.2291    475091.89   -2005984.5     222510.5     -1783474    4210825.2 
   11000         2.75    3802.0617    487200.12   -2002108.1    218647.86   -1783460.3    4200960.6 
   11100        2.775    3719.3585    502632.41   -1997332.8    213891.79     -1783441      4191096 
   11200          2.8     3662.736    515264.33   -1994078.3    210635.56   -1783442.7    4181231.5 
   11300        2.825    3605.9501    527659.92   -1990819.9    207369.93     -1783450    4171366.9 
   11400         2.85    3554.5667    539720.04   -1987855.3    204414.99   -1783440.4    4161502.4 
   11500        2.875    3521.6005    552504.35   -1985947.4    202519.18   -1783428.2    4151637.8 
   11600          2.9    3476.8587    564796.84     -1983376    199946.18   -1783429.8    4141773.2 
   11700        2.925    3442.8444    576296.81   -1981435.6    197990.09   -1783445.5    4131908.7 
   11800         2.95    3422.7045    582360.14   -1980304.6    196831.89   -1783472.7    4122044.1 
   11900        2.975    3403.0272    586132.65   -1979197.8     195700.3   -1783497.5    4112179.6 
   12000            3     3385.476    589823.28     -1978194    194690.97   -1783503.1      4102315 
   12100        3.025    3378.0882    593360.93   -1977750.3    194266.11   -1783484.2    4092450.5 
   12200         3.05    3355.2349    598004.73   -1976412.3    192951.87   -1783460.4    4082585.9 
   12300        3.075    3326.6796    602409.18   -1974766.5    191309.72   -1783456.8    4072721.3 
   12400          3.1    3247.6431     609139.9   -1970224.7    186764.51   -1783460.2    4062856.8 
   12500        3.125    3191.5785    616929.34   -1966990.1    183540.37   -1783449.7    4052992.2 
   12600         3.15    3118.0422    622685.91   -1962742.1    179311.46   -1783430.6    4043127.7 
   12700        3.175    3045.2154    631687.77   -1958545.1    175123.36   -1783421.7    4033263.1 
   12800          3.2    2978.2854    637983.56   -1954697.9    171274.37   -1783423.6    4023398.5 
   12900        3.225    2893.8292    646084.97   -1949838.4    166417.49   -1783420.9      4013534 
   13000         3.25    2824.5929    651611.79   -1945844.9    162435.87     -1783409    4003669.4 
   13100        3.275    2751.3542    658946.42   -1941616.4    158224.08   -1783392.3    3993804.9 
   13200          3.3    2682.5884    663243.72   -1937637.6    154269.52   -1783368.1    3983940.3 
   13300        3.325    2620.0418    669152.78   -1934016.1     150672.6   -1783343.5    3974075.7 
   13400         3.35    2566.4341    676387.51   -1930925.9    147589.75   -1783336.2    3964211.2 
   13500        3.375    2524.4832    680853.73     -1928528    145177.25   -1783350.8    3954346.6 
   13600          3.4    2488.1588    688680.52   -1926455.4    143088.31   -1783367.1    3944482.1 
   13700        3.425    2464.7045    695910.21   -1925095.6    141739.51   -1783356.1    3934617.5 
   13800         3.45    2440.5861    704269.07   -1923682.1    140352.52   -1783329.6    3924752.9 
   13900        3.475    2441.8174    711917.89   -1923738.9    140423.33   -1783315.6    3914888.4 
   14000          3.5    2440.7433    715964.37   -1923688.5    140361.56   -1783326.9    3905023.8 
   14100        3.525    2416.2778    717635.41   -1922297.3     138954.6   -1783342.7    3895159.3 
   14200         3.55    2390.9995    720361.21   -1920840.9    137500.91     -1783340    3885294.7 
   14300        3.575    2366.8848    724821.53     -1919440    136114.12   -1783325.9    3875430.2 
   14400          3.6    2332.3836     732196.5   -1917439.6    134130.04   -1783309.6    3865565.6 
   14500        3.625    2284.8622    738374.94   -1914700.1    131397.19   -1783302.9      3855701 
   14600         3.65    2239.2433    746244.74   -1912085.7    128773.75     -1783312    3845836.5 
   14700        3.675     2181.308    751747.79   -1908772.3    125442.03   -1783330.3    3835971.9 
   14800          3.7    2131.1013    758996.58     -1905896    122554.75   -1783341.3    3826107.4 
   14900        3.725    2081.3726    766317.33   -1903026.8    119694.97   -1783331.8    3816242.8 
   15000         3.75    2030.5991    774401.63   -1900066.4     116775.1   -1783291.3    3806378.2 
   15100        3.775    1990.3363    779976.49   -1897671.3    114459.68   -1783211.6    3796513.7 
   15200          3.8    1953.7978    785376.92   -1895419.5    112358.44   -1783061.1    3786649.1 
   15300        3.825    1920.9807    793529.11   -1893231.2     110471.2     -1782760    3776784.6 
   15400         3.85    1901.3635    800380.27   -1891492.4    109343.06   -1782149.4      3766920 
   15500        3.875    1891.9417    809752.83   -1889798.2    108801.23   -1780996.9    3757055.4 
   15600          3.9    1893.6637     816405.9   -1888002.1    108900.26   -1779101.8    3747190.9 
   15700        3.925    1911.6012    825674.44     -1886419     109931.8   -1776487.2    3737326.3 
   15800         3.95    1937.0643    837649.16   -1884853.2    111396.13     -1773457    3727461.8 
   15900        3.975    1960.3865    846650.29   -1883131.6    112737.34   -1770394.3    3717597.2 
   16000            4    1983.4248    857307.92   -1881449.8    114062.22   -1767387.5    3707732.6 
   16100        4.025    1998.8562    868690.37   -1879081.9    114949.64   -1764132.3    3697868.1 
   16200         4.05    1988.6434    883621.13   -1874709.1    114362.32   -1760346.8    3688003.5 
   16300        4.075    1995.3598    897089.54   -1870886.3    114748.57   -1756137.7      3678139 
   16400          4.1    1996.2656    912182.88   -1866553.9    114800.66   -1751753.3    3668274.4 
   16500        4.125    1980.0617    928577.42   -1860938.9    113868.81   -1747070.1    3658409.9 
   16600         4.15    1976.2449    946841.14   -1855342.3    113649.32     -1741693    3648545.3 
   16700        4.175    1949.3171    965303.53   -1847704.1    112100.76   -1735603.3    3638680.7 
   16800          4.2    1930.3125    987127.44   -1840104.5    111007.85   -1729096.7    3628816.2 
   16900        4.225    1900.0055    1009776.9   -1831028.8    109264.96   -1721763.8    3618951.6 
   17000         4.25    1897.8844    1031666.4   -1821134.7    109142.99   -1711991.7    3609087.1 
   17100        4.275    1952.8697    1051519.8     -1810538    112305.07   -1698232.9    3599222.5 
   17200          4.3    2053.9757    1072323.4   -1799457.1    118119.44   -1681337.7    3589357.9 
   17300        4.325    2176.8284    1090588.1   -1788965.9    125184.42   -1663781.5    3579493.4 
   17400         4.35    2294.6956    1099901.2   -1778574.4    131962.68   -1646611.7    3569628.8 
   17500        4.375    2423.7074    1114643.2   -1768521.7    139381.86   -1629139.8    3559764.3 
   17600          4.4    2577.2961    1127263.1   -1759032.4    148214.39     -1610818    3549899.7 
   17700        4.425    2748.7495    1138368.1   -1750212.8    158074.29   -1592138.5    3540035.1 
   17800         4.45    2918.7333    1152517.4   -1741810.8    167849.67   -1573961.2    3530170.6 
   17900        4.475    3082.9564    1166638.6   -1733905.1    177293.76   -1556611.3      3520306 
   18000          4.5    3239.6762    1176458.8   -1726167.9    186306.36   -1539861.5    3510441.5 
   18100        4.525    3372.2363    1188378.8     -1717539    193929.59   -1523609.4    3500576.9 
   18200         4.55    3472.4116      1207862   -1707790.1    199690.44   -1508099.6    3490712.3 
   18300        4.575    3543.9169    1230107.2   -1697166.9    203802.54   -1493364.4    3480847.8 
   18400          4.6    3594.7009    1260626.5   -1685694.1    206723.02   -1478971.1    3470983.2 
   18500        4.625    3634.2885    1296026.6   -1673844.1     208999.6   -1464844.5    3461118.7 
   18600         4.65    3656.7306    1335804.6   -1662020.7     210290.2   -1451730.5    3451254.1 
   18700        4.675    3660.1988    1371899.4   -1650664.3    210489.65   -1440174.6    3441389.6 
   18800          4.7     3650.209    1406212.1   -1639625.7    209915.16   -1429710.6      3431525 
   18900        4.725    3645.1698    1438339.4   -1629202.4    209625.36     -1419577    3421660.4 
   19000         4.75    3651.5124    1467683.3   -1619427.3    209990.11   -1409437.2    3411795.9 
   19100        4.775    3678.0883      1491665   -1610385.5    211518.43   -1398867.1    3401931.3 
   19200          4.8    3743.8986    1510377.8   -1602145.2    215303.03   -1386842.2    3392066.8 
   19300        4.825    3854.8462    1531363.9   -1594269.9    221683.38   -1372586.5    3382202.2 
   19400         4.85    3999.9578      1545873   -1586697.1    230028.41   -1356668.7    3372337.6 
   19500        4.875    4152.3964    1556890.5     -1578902     238794.8   -1340107.2    3362473.1 
   19600          4.9     4322.371    1569305.1   -1571452.6    248569.65   -1322882.9    3352608.5 
   19700        4.925    4518.7012    1576790.8   -1564309.7    259860.16   -1304449.6      3342744 
   19800         4.95    4735.5851    1586534.1   -1557283.7    272332.65   -1284951.1    3332879.4 
   19900        4.975    4954.1527    1598318.8   -1549982.8    284901.98   -1265080.8    3323014.8 
   20000            5    5166.8617    1605138.1   -1542648.9    297134.38   -1245514.5    3313150.3 
   20100        5.025    5367.6937    1620267.5     -1535262    308683.77   -1226578.2    3303285.7 
   20200         5.05    5545.2873    1635219.6   -1526882.8    318896.77     -1207986    3293421.2 
   20300        5.075    5720.6548    1652692.3   -1518114.1    328981.75   -1189132.3    3283556.6 
   20400          5.1    5890.7708    1672626.1   -1508573.4    338764.74   -1169808.6      3273692 
   20500        5.125    6057.4738    1695424.6   -1499015.6    348351.44   -1150664.1    3263827.5 
   20600         5.15     6202.951    1718783.2   -1488815.7     356717.5   -1132098.2    3253962.9 
   20700        5.175    6342.7024    1744929.1   -1478597.4    364754.29   -1113843.1    3244098.4 
   20800          5.2    6468.7645    1776838.1   -1467775.4    372003.83   -1095771.6    3234233.8 
   20900        5.225     6583.448    1807723.6   -1457033.2    378599.01   -1078434.2    3224369.3 
   21000         5.25    6672.7386    1849051.9   -1445956.5    383733.91   -1062222.6    3214504.7 
   21100        5.275    6750.6934    1897474.4   -1435088.3    388216.91   -1046871.4    3204640.1 
   21200          5.3    6811.4273    1938909.9   -1423846.5    391709.58   -1032136.9    3194775.6 
   21300        5.325    6850.3124    1980348.2     -1412180    393945.78   -1018234.2      3184911 
   21400         5.35    6880.5738      2014965   -1400754.9    395686.04   -1005068.8    3175046.5 
   21500        5.375    6888.3043    2050150.6   -1388239.9     396130.6   -992109.26    3165181.9 
   21600          5.4    6910.0046    2088236.7   -1376614.3    397378.54   -979235.79    3155317.3 
   21700        5.425    6924.2205    2118435.9   -1364694.8    398196.06   -966498.73    3145452.8 
   21800         5.45    6940.6932    2137216.2   -1352962.8    399143.37   -953819.46    3135588.2 
   21900        5.475    6972.9016      2152660   -1341969.5     400995.6   -940973.89    3125723.7 
   22000          5.5    7007.6166    2172775.9   -1331132.1    402991.98   -928140.14    3115859.1 
   22100        5.525    7038.3548    2181661.4   -1320572.6    404759.66    -915812.9    3105994.5 
   22200         5.55    7062.2545    2192911.6   -1310020.6    406134.08   -903886.56      3096130 
   22300        5.575    7089.6615    2209519.2   -1299846.6    407710.19   -892136.36    3086265.4 
   22400          5.6    7119.6158    2219226.2   -1289937.3     409432.8    -880504.5    3076400.9 
   22500        5.625    7156.1453    2229300.7   -1280429.9    411533.53   -868896.37    3066536.3 
   22600         5.65    7203.5053      2237419     -1271441    414257.09   -857183.91    3056671.7 
   22700        5.675    7253.2706    2258313.7   -1262394.8    417118.97   -845275.84    3046807.2 
   22800          5.7      7307.73    2274617.9     -1253443    420250.81   -833192.24    3036942.6 
   22900        5.725    7370.3023    2289900.7   -1244635.4     423849.2   -820786.17    3027078.1 
   23000         5.75    7451.3716    2312212.6   -1236034.2    428511.31    -807522.9    3017213.5 
   23100        5.775    7551.3866    2330597.6     -1227495    434262.94   -793232.04      3007349 
   23200          5.8    7662.9689    2349850.8   -1218875.5    440679.79   -778195.72    2997484.4 
   23300        5.825    7783.8395    2376157.8   -1210379.5    447630.78    -762748.7    2987619.8 
   23400         5.85    7905.0658      2396901   -1201504.1    454602.23   -746901.88    2977755.3 
   23500        5.875    8039.4447    2424467.5   -1193068.6    462330.05   -730738.54    2967890.7 
   23600          5.9    8171.5001    2444557.9   -1184487.2    469924.25   -714562.93    2958026.2 
   23700        5.925    8304.1476      2467881   -1175830.4    477552.51   -698277.93    2948161.6 
   23800         5.95     8414.391    2494757.4   -1165496.8    483892.35   -681604.41      2938297 
   23900        5.975    8485.5025    2525035.6   -1152566.7    487981.81   -664584.87    2928432.5 
   24000            6    8530.2374    2551902.4   -1137874.9    490554.41   -647320.52    2918567.9 
   24100        6.025    8565.6323    2581502.5   -1122223.9    492589.89   -629633.96    2908703.4 
   24200         6.05    8566.7263    2613191.6   -1104217.7    492652.81   -611564.94    2898838.8 
   24300        6.075    8569.5303    2638529.4   -1086159.6    492814.06   -593345.56    2888974.2 
   24400          6.1    8537.8057    2673599.9   -1066081.3    490989.65   -575091.63    2879109.7 
   24500        6.125    8508.4221    2709099.7   -1045953.1    489299.87   -556653.25    2869245.1 
   24600         6.15    8467.2057    2746174.2   -1024995.8    486929.61    -538066.2    2859380.6 
   24700        6.175     8438.648    2782298.7   -1005058.6    485287.32   -519771.26      2849516 
   24800          6.2     8403.123    2820555.2   -985130.98    483244.35   -501886.62    2839651.4 
   24900        6.225    8381.1519    2858289.2   -965888.61    481980.84   -483907.77    2829786.9 
   25000         6.25    8355.0332    2894604.2   -946300.95    480478.82   -465822.13    2819922.3 
   25100        6.275    8341.5599    2932998.8   -927380.91       479704   -447676.91    2810057.8 
   25200          6.3    8329.5999    2967853.1   -908319.89    479016.21   -429303.68    2800193.2 
   25300        6.325    8307.7261    3014019.3   -888439.93     477758.3   -410681.64    2790328.7 
   25400         6.35    8306.3683    3056041.3   -869555.22    477680.21      -391875    2780464.1 
   25500        6.375    8311.3736    3095443.7   -850985.43    477968.06   -373017.37    2770599.5 
   25600          6.4    8314.8081    3129000.3   -832501.02    478165.57   -354335.45      2760735 
   25700        6.425    8351.7248    3168355.1    -815915.5    480288.56   -335626.94    2750870.4 
   25800         6.45    8385.2043    3199953.4   -799326.42    482213.89   -317112.53    2741005.9 
   25900        6.475    8421.4909      3238236   -783191.78    484300.65   -298891.13    2731141.3 
   26000          6.5    8459.0175    3268792.2    -767608.1    486458.72   -281149.38    2721276.7 
   26100        6.525     8481.065    3303891.5    -751313.5    487726.62   -263586.88    2711412.2 
   26200         6.55    8502.1187      3332448   -735122.26    488937.37   -246184.89    2701547.6 
   26300        6.575    8502.0626    3369128.6   -717992.05    488934.14   -229057.91    2691683.1 
   26400          6.6    8467.6403    3404697.1   -699036.03     486954.6   -212081.43    2681818.5 
   26500        6.625    8446.8316    3435623.9   -681151.33    485757.94   -195393.39    2671953.9 
   26600         6.65    8412.9437    3477789.3   -662720.98    483809.12   -178911.86    2662089.4 
   26700        6.675    8374.3198      3510745   -644395.84    481587.95   -162807.89    2652224.8 
   26800          6.7    8348.3344    3550428.8   -626941.46    480093.59   -146847.87    2642360.3 
   26900        6.725    8302.1402    3596419.7   -608566.41    477437.06   -131129.34    2632495.7 
   27000         6.75    8221.7723    3655759.9   -588482.47    472815.29   -115667.18    2622631.1 
   27100        6.775    8144.9474    3733578.2   -568760.25    468397.26   -100362.98    2612766.6 
   27200          6.8    8003.8948    3809834.7   -545505.92    460285.66   -85220.268      2602902 
   27300        6.825      7872.58    3900523.2   -522734.05    452734.04   -70000.011    2593037.5 
   27400         6.85     7743.253    3985541.8   -500151.41    445296.74   -54854.668    2583172.9 
   27500        6.875    7608.1007    4070453.7   -477216.15    437524.44   -39691.711    2573308.3 
   27600          6.9    7463.8206    4148494.3   -453807.72    429227.22   -24580.491    2563443.8 
   27700        6.925    7351.8805    4210608.7   -432212.46    422789.81   -9422.6523    2553579.2 
   27800         6.95    7233.7428    4273171.6   -410263.63    415995.98      5732.35    2543714.7 
   27900        6.975    7147.3543    4315258.4   -390242.34    411027.97    20785.629    2533850.1 
   28000            7     7042.721    4365161.2   -369149.34    405010.75    35861.416    2523985.6 
   28100        7.025    6983.6356    4402620.7   -350792.81    401612.89    50820.076      2514121 
   28200         7.05    6904.1656    4426955.9   -331344.05    397042.75    65698.702    2504256.4 
   28300        7.075    6849.9826    4471816.1   -313335.18    393926.81    80591.627    2494391.9 
   28400          7.1    6763.9225    4504459.2   -293613.67    388977.69    95364.023    2484527.3 
   28500        7.125    6703.0958    4546268.9   -275279.26    385479.68    110200.43    2474662.8 
   28600         7.15    6604.1063    4589504.6   -254287.04    379787.03    125499.98    2464798.2 
   28700        7.175    6547.6803      4646859   -234818.14     376542.1    141723.95    2454933.6 
   28800          7.2    6486.2244    4699329.5   -213406.65    373007.91    159601.26    2445069.1 
   28900        7.225    6464.2569    4759873.1   -191802.83    371744.61    179941.78    2435204.5 
   29000         7.25    6476.3009    4816537.4   -168616.49    372437.23    203820.74      2425340 
   29100        7.275    6521.0923      4874139   -143300.27    375013.08    231712.81    2415475.4 
   29200          7.3     6608.251    4940043.7   -116184.21    380025.38    263841.17    2405610.8 
   29300        7.325    6735.2316    5009947.4   -87590.365    387327.74    299737.37    2395746.3 
   29400         7.35      6894.29    5080888.6   -57277.149    396474.83    339197.68    2385881.7 
   29500        7.375    7085.5793    5144343.3   -25752.957    407475.43    381722.48    2376017.2 
   29600          7.4    7336.6856    5230572.4    5278.1204    421915.98     427194.1    2366152.6 
   29700        7.425    7625.1462    5311267.3    35764.026    438504.69    474268.72      2356288 
   29800         7.45    7912.6537    5401874.6    67090.458    455038.59    522129.05    2346423.5 
   29900        7.475    8214.3305    5512921.4    98200.783    472387.33    570588.11    2336558.9 
   30000          7.5    8490.3802    5636444.7    129496.85    488262.31    617759.16    2326694.4 
   30100        7.525    8741.8773    5783258.4    161136.68    502725.34    663862.02    2316829.8 
   30200         7.55    9009.5104    5920608.5    190384.73     518116.3    708501.04    2306965.3 
   30300        7.575    9222.2729    6065620.5    222598.53    530351.79    752950.31    2297100.7 
   30400          7.6    9444.3798    6219118.4    254427.21    543124.65    797551.86    2287236.1 
   30500        7.625    9702.3147    6349364.8    286554.04    557957.89    844511.93    2277371.6 
   30600         7.65    9963.0993    6453125.1    321031.11    572955.02    893986.13      2267507 
   30700        7.675    10253.971    6557198.9    355060.09    589682.38    944742.47    2257642.5 
   30800          7.7    10512.648      6654118    391652.23    604558.29    996210.51    2247777.9 
   30900        7.725    10738.602      6742505    429724.73    617552.42    1047277.1    2237913.3 
   31000         7.75    10927.748    6856308.3    470840.27    628429.78    1099270.1    2228048.8 
   31100        7.775    11077.854    6977445.7    514156.85    637061.99    1151218.8    2218184.2 
   31200          7.8    11221.536    7135739.2    556939.36    645324.81    1202264.2    2208319.7 
   31300        7.825    11392.382    7285434.4    597606.92    655149.81    1252756.7    2198455.1 
   31400         7.85    11510.234      7448209    641056.87    661927.22    1302984.1    2188590.5 
   31500        7.875    11649.024    7596425.4    683127.94     669908.7    1353036.6      2178726 
   31600          7.9    11789.977    7748383.7    724236.43    678014.59      1402251    2168861.4 
   31700        7.925    11942.007    7870750.2    764628.41    686757.46    1451385.9    2158996.9 
   31800         7.95    12083.385    7984436.8    805072.09    694887.81    1499959.9    2149132.3 
   31900        7.975    12283.989    8079018.1    842514.72    706424.05    1548938.8    2139267.7 
   32000            8    12463.868      8171028    881479.08    716768.51    1598247.6    2129403.2 
   32100        8.025    12699.487    8271202.3    918194.76    730318.39    1648513.2    2119538.6 
   32200         8.05    12949.944      8400213    957228.62    744721.62    1701950.2    2109674.1 
   32300        8.075    13248.485    8515310.9    996986.63    761890.01    1758876.6    2099809.5 
   32400          8.1    13525.991    8651477.4    1040978.3    777848.77    1818827.1      2089945 
   32500        8.125    13764.067    8784360.9    1089243.1    791539.95      1880783    2080080.4 
   32600         8.15    13988.296    8925002.1    1139408.7    804434.84    1943843.5    2070215.8 
   32700        8.175    14146.193    9091098.5    1194592.6    813515.18    2008107.8    2060351.3 
   32800          8.2    14287.433    9222072.4    1250626.1    821637.56    2072263.7    2050486.7 
   32900        8.225    14426.116    9384282.3    1305846.9    829612.88    2135459.8    2040622.2 
   33000         8.25    14509.038    9551576.1    1363473.6    834381.52    2197855.2    2030757.6 
   33100        8.275     14580.32    9724039.3    1420942.3     838480.8    2259423.1      2020893 
   33200          8.3    14614.237    9902057.5    1479766.5    840431.32    2320197.8    2011028.5 
   33300        8.325    14682.732     10073834    1537055.1    844370.27    2381425.4    2001163.9 
   33400         8.35    14734.263     10256751    1595874.5     847333.7    2443208.2    1991299.4 
   33500        8.375     14760.46     10428505      1654949    848840.25    2503789.3    1981434.8 
   33600          8.4    14734.474     10599238    1716519.3    847345.86    2563865.2    1971570.2 
   33700        8.425    14617.022     10785058    1782197.6    840591.47    2622789.1    1961705.7 
   33800         8.45    14507.134     10971826    1845954.5    834272.02    2680226.5    1951841.1 
   33900        8.475    14299.185     11206501    1914472.8    822313.37    2736786.1    1941976.6 
   34000          8.5     14082.15     11464343    1981860.6    809832.19    2791692.8      1932112 
   34100        8.525    13757.438     11744516    2053981.7    791158.76    2845140.4    1922247.4 
   34200         8.55    13525.525     12012235    2120597.5    777821.94    2898419.5    1912382.9 
   34300        8.575    13206.434     12256037    2192588.1    759471.77    2952059.9    1902518.3 
   34400          8.6    12972.931     12441849    2259039.7    746043.54    3005083.2    1892653.8 
   34500        8.625    12723.587     12605506      2326836    731704.35    3058540.3    1882789.2 
   34600         8.65    12521.856     12770380    2392925.3    720103.26    3113028.6    1872924.7 
   34700        8.675    12385.025     12958941    2457899.4    712234.39    3170133.7    1863060.1 
   34800          8.7    12305.655     13145204    2524858.3    707670.03    3232528.3    1853195.5 
   34900        8.725    12326.873     13366554    2595518.9    708890.24    3304409.2      1843331 
   35000         8.75    12488.013     13611816    2669591.2    718157.04    3387748.3    1833466.4 
   35100        8.775     12677.87     13876767    2750754.7    729075.29      3479830    1823601.9 
   35200          8.8    12927.771     14138123      2833366    743446.47    3576812.4    1813737.3 
