LAMMPS (29 Sep 2021)
  using 1 OpenMP thread(s) per MPI task
Reading data file ...
  orthogonal box = (-0.72602232 -0.72907951 0.0000000) to (101.94341 101.94647 530.53600)
  2 by 2 by 6 MPI processor grid
  reading atoms ...
  425652 atoms
  reading velocities ...
  425652 velocities
  read_data CPU = 4.644 seconds
213003 atoms in group g_left
212649 atoms in group g_right

CITE-CITE-CITE-CITE-CITE-CITE-CITE-CITE-CITE-CITE-CITE-CITE-CITE

Your simulation uses code contributions which should be cited:
- GPU package (short-range, long-range and three-body potentials):
The log file lists these citations in BibTeX format.

CITE-CITE-CITE-CITE-CITE-CITE-CITE-CITE-CITE-CITE-CITE-CITE-CITE


--------------------------------------------------------------------------
- Using acceleration for eam/alloy:
-  with 12 proc(s) per device.
-  Horizontal vector operations: ENABLED
-  Shared memory system: No
--------------------------------------------------------------------------
Device 0: Tesla V100-SXM2-32GB, 80 CUs, 28/32 GB, 1.5 GHZ (Mixed Precision)
Device 1: Tesla V100-SXM2-32GB, 80 CUs, 1.5 GHZ (Mixed Precision)
--------------------------------------------------------------------------

Initializing Device and compiling on process 0...Done.
Initializing Devices 0-1 on core 0...Done.
Initializing Devices 0-1 on core 1...Done.
Initializing Devices 0-1 on core 2...Done.
Initializing Devices 0-1 on core 3...Done.
Initializing Devices 0-1 on core 4...Done.
Initializing Devices 0-1 on core 5...Done.
Initializing Devices 0-1 on core 6...Done.
Initializing Devices 0-1 on core 7...Done.
Initializing Devices 0-1 on core 8...Done.
Initializing Devices 0-1 on core 9...Done.
Initializing Devices 0-1 on core 10...Done.
Initializing Devices 0-1 on core 11...Done.

Setting up Verlet run ...
  Unit style    : metal
  Current step  : 0
  Time step     : 0.00025
Per MPI rank memory allocation (min/avg/max) = 8.281 | 10.12 | 11.06 Mbytes
Step Time Temp Press PotEng KinEng TotEng Volume 
       0            0    18712.707    193438.48   -1769098.6    1029567.7   -739530.89    5592719.4 
     100        0.025    18710.679    193925.61     -1769129    1029456.1    -739672.9    5576906.9 
     200         0.05    18711.034    194475.16   -1769116.3    1029475.7   -739640.58    5561094.5 
     300        0.075    18710.929    195034.34   -1769072.9    1029469.9   -739602.98      5545282 
     400          0.1    18712.061    195581.18   -1769112.9    1029532.2   -739580.69    5529469.5 
     500        0.125    18712.368    196155.28   -1769103.8    1029549.1   -739554.77    5513657.1 
     600         0.15    18711.567    196700.26   -1769112.1      1029505   -739607.16    5497844.6 
     700        0.175     18712.01    197267.11   -1769104.6    1029529.3    -739575.3    5482032.2 
     800          0.2    18712.299    197829.37   -1769113.9    1029545.2   -739568.66    5466219.7 
     900        0.225    18712.046    198397.06     -1769098    1029531.3   -739566.62    5450407.2 
    1000         0.25     18712.25    198971.77   -1769092.6    1029542.6   -739549.98    5434594.8 
    1100        0.275     18711.72    199537.81   -1769121.3    1029513.4   -739607.88    5418782.3 
    1200          0.3    18711.586    200124.28   -1769092.8      1029506   -739586.75    5402969.9 
    1300        0.325    18712.052    200698.21   -1769119.9    1029531.7   -739588.26    5387157.4 
    1400         0.35     18712.26    201308.29   -1769098.6    1029543.1   -739555.48    5371344.9 
    1500        0.375    18712.136    201898.33   -1769097.5    1029536.3   -739561.24    5355532.5 
    1600          0.4    18712.507    202479.64   -1769114.3    1029556.7   -739557.54      5339720 
    1700        0.425    18710.654    203066.78   -1769087.5    1029454.8   -739632.76    5323907.6 
    1800         0.45     18711.35    203615.31   -1769128.9    1029493.1   -739635.84    5308095.1 
    1900        0.475    18715.929    204149.41   -1769378.1      1029745   -739633.08    5292282.7 
    2000          0.5    18708.434    205117.78   -1768947.2    1029332.6   -739614.61    5276470.2 
    2100        0.525    18677.588    207145.07   -1767239.6    1027635.5   -739604.16    5260657.7 
    2200         0.55    18628.728    210382.83   -1764606.2    1024947.2   -739658.94    5244845.3 
    2300        0.575    18577.759     214299.3   -1761773.4    1022142.9   -739630.52    5229032.8 
    2400          0.6    18525.937    218228.88   -1758904.5    1019291.7   -739612.78    5213220.4 
    2500        0.625     18476.98    222157.45   -1756228.1    1016598.1   -739630.04    5197407.9 
    2600         0.65    18425.939     226018.7   -1753413.8    1013789.8   -739623.99    5181595.4 
    2700        0.675    18358.404     230503.7   -1749685.6    1010074.1   -739611.49      5165783 
    2800          0.7    18248.325       237757   -1743711.1    1004017.6   -739693.51    5149970.5 
    2900        0.725    18131.226       244856     -1737262    997574.81   -739687.15    5134158.1 
    3000         0.75    18011.711    251223.01   -1730689.7    990999.12    -739690.6    5118345.6 
    3100        0.775    17892.422    259109.43   -1724129.3    984435.85   -739693.48    5102533.1 
    3200          0.8    17754.792     266341.9     -1716533    976863.53   -739669.52    5086720.7 
    3300        0.825    17617.844    273066.89     -1708980    969328.67    -739651.3    5070908.2 
    3400         0.85     17475.79    281364.25   -1701151.1    961512.92   -739638.13    5055095.8 
    3500        0.875    17329.176    291117.06   -1693074.3    953446.21   -739628.05    5039283.3 
    3600          0.9    17176.514    300753.17   -1684645.1    945046.79   -739598.27    5023470.8 
    3700        0.925    17020.674    310640.61   -1676112.9    936472.55   -739640.33    5007658.4 
    3800         0.95    16861.157    321058.33   -1667332.3    927695.95   -739636.33    4991845.9 
    3900        0.975    16701.944    331891.54   -1658573.4    918936.12   -739637.29    4976033.5 
    4000            1    16539.518    343091.51   -1649637.3    909999.47    -739637.8      4960221 
    4100        1.025      16378.3    354358.12   -1640742.5    901129.33   -739613.21    4944408.5 
    4200         1.05    16214.772    365659.59     -1631802    892132.04   -739669.96    4928596.1 
    4300        1.075    16051.127    377358.08   -1622774.4    883128.37   -739646.05    4912783.6 
    4400          1.1    15888.414    388962.24     -1613789    874175.91   -739613.04    4896971.2 
    4500        1.125    15726.628    400443.45   -1604887.4    865274.49   -739612.89    4881158.7 
    4600         1.15    15563.839    411910.87   -1595927.4    856317.89   -739609.55    4865346.2 
    4700        1.175     15402.03    423480.64   -1587017.7    847415.21   -739602.47    4849533.8 
    4800          1.2    15241.261    435060.08   -1578228.1    838569.75   -739658.39    4833721.3 
    4900        1.225    15081.167    446317.16   -1569391.6    829761.45   -739630.17    4817908.9 
    5000         1.25     14918.63    457713.02   -1560427.4    820818.71   -739608.73    4802096.4 
    5100        1.275    14757.834    469150.46   -1551564.8    811971.75      -739593    4786283.9 
    5200          1.3    14600.526    480516.96   -1542893.4     803316.7   -739576.74    4770471.5 
    5300        1.325     14438.49    491572.84   -1534042.9    794401.55   -739641.37      4754659 
    5400         1.35    14280.718    502810.39   -1525361.7    785720.99    -739640.7    4738846.6 
    5500        1.375    14118.911    513999.44   -1516473.6    776818.41   -739655.24    4723034.1 
    5600          1.4    13961.244    525200.04   -1507768.8    768143.58   -739625.24    4707221.6 
    5700        1.425    13800.876    536354.56   -1498930.5    759320.19   -739610.29    4691409.2 
    5800         1.45    13632.478    548426.73   -1489680.1    750054.96   -739625.12    4675596.7 
    5900        1.475    13566.797     555936.9   -1486046.5    746441.26   -739605.27    4659784.3 
    6000          1.5    13644.538    554108.28   -1490321.8    750718.54   -739603.29    4643971.8 
    6100        1.525    13541.146     551078.8   -1484643.8    745029.91   -739613.89    4628159.3 
    6200         1.55    13535.054    550108.94     -1484308    744694.72   -739613.27    4612346.9 
    6300        1.575    13566.461    552006.91   -1486080.5    746422.75   -739657.78    4596534.4 
    6400          1.6    13503.122    555082.16   -1482576.3    742937.87   -739638.44      4580722 
    6500        1.625     13529.16    554968.41     -1484012    744370.46   -739641.52    4564909.5 
    6600         1.65    13525.767    554019.83   -1483838.1    744183.77   -739654.31      4549097 
    6700        1.675    13516.564    554170.38   -1483325.6    743677.44    -739648.2    4533284.6 
    6800          1.7    13530.397    554284.75   -1484093.1    744438.53   -739654.53    4517472.1 
    6900        1.725    13522.681    555672.54   -1483616.2    744013.97   -739602.27    4501659.7 
    7000         1.75    13474.847       559372   -1481010.1    741382.15   -739627.95    4485847.2 
    7100        1.775    13387.791    566929.82   -1476245.5     736592.4   -739653.14    4470034.8 
    7200          1.8    13232.487    568477.95   -1467719.9    728047.59   -739672.32    4454222.3 
    7300        1.825    13149.506    576844.97     -1463175    723482.01   -739692.95    4438409.8 
    7400         1.85    12996.038     586874.2   -1454698.4    715038.26   -739660.16    4422597.4 
    7500        1.875     12878.75     591585.5   -1448252.4    708585.11   -739667.26    4406784.9 
    7600          1.9     12719.83    600426.32   -1439522.2    699841.38   -739680.87    4390972.5 
    7700        1.925    12578.042    613924.97   -1431697.9    692040.25   -739657.68      4375160 
    7800         1.95    12418.977    625612.26   -1422960.5     683288.5   -739672.03    4359347.5 
    7900        1.975     12257.68    637711.95   -1414091.3       674414   -739677.34    4343535.1 
    8000            2     12093.07     652679.2   -1405065.8    665357.21   -739708.56    4327722.6 
    8100        2.025    11922.252    668402.13   -1395673.3    655958.83   -739714.45    4311910.2 
    8200         2.05    11735.097    684810.59   -1385350.7    645661.65   -739689.08    4296097.7 
    8300        2.075    11540.599    702296.41     -1374649    634960.42   -739688.55    4280285.2 
    8400          2.1    11335.138       720140   -1363357.4    623656.01   -739701.34    4264472.8 
    8500        2.125    11127.595    738295.34   -1351941.3    612237.06   -739704.25    4248660.3 
    8600         2.15    10910.793    756922.93   -1340023.4    600308.65   -739714.71    4232847.9 
    8700        2.175    10692.104    775585.37   -1327988.1    588276.49   -739711.61    4217035.4 
    8800          2.2    10464.933    794063.35   -1315507.5    575777.56   -739729.94    4201222.9 
    8900        2.225    10235.801    812098.06   -1302924.4    563170.78   -739753.64    4185410.5 
    9000         2.25    10017.066    829312.92   -1290889.7    551136.04   -739753.69      4169598 
    9100        2.275    9808.6535    845856.17   -1279352.3    539669.27      -739683    4153785.6 
    9200          2.3    9618.4749    862270.75   -1268866.7     529205.7      -739661    4137973.1 
    9300        2.325    9440.4143    877606.77   -1259074.6    519408.86   -739665.72    4122160.6 
    9400         2.35    9285.9552     892221.2   -1250587.8    510910.56   -739677.21    4106348.2 
    9500        2.375    9152.1266    906445.09   -1243233.8    503547.35    -739686.4    4090535.7 
    9600          2.4    9024.2658    920048.44     -1236188    496512.49   -739675.52    4074723.3 
    9700        2.425     8898.937    931836.16   -1229311.2    489616.93   -739694.26    4058910.8 
    9800         2.45    8794.8334     942423.1   -1223572.5    483889.19   -739683.27    4043098.3 
    9900        2.475    8695.3057     951325.2     -1218094     478413.2   -739680.83    4027285.9 
   10000          2.5    8751.0211    952006.67     -1221160    481478.64   -739681.39    4011473.4 
   10100        2.525    8789.6972    944032.88   -1223244.7    483606.59    -739638.1      3995661 
   10200         2.55    8751.5866    937854.06   -1221139.6    481509.75   -739629.84    3979848.5 
   10300        2.575    8795.2203    934560.49   -1223536.1    483910.47    -739625.6      3964036 
   10400          2.6    8836.5865    936635.09   -1225722.8    486186.43    -739536.4    3948223.6 
   10500        2.625    8827.8194     938515.9   -1225241.5    485704.06   -739537.43    3932411.1 
   10600         2.65    8882.1254    937471.89   -1228244.2    488691.96   -739552.26    3916598.7 
   10700        2.675    8869.5011    936683.93   -1227552.2    487997.38   -739554.78    3900786.2 
   10800          2.7     8884.686    937160.22   -1228368.2    488832.85   -739535.31    3884973.7 
   10900        2.725    8899.4062    938706.26     -1229186    489642.75   -739543.24    3869161.3 
   11000         2.75    8905.1698    941810.52   -1229538.2    489959.86   -739578.38    3853348.8 
   11100        2.775     8851.265     950133.2   -1226534.6    486994.03   -739540.58    3837536.4 
   11200          2.8    8805.7328    958187.34   -1224017.2    484488.86   -739528.38    3821723.9 
   11300        2.825    8650.5139    962818.81   -1215505.6    475948.77   -739556.79    3805911.4 
   11400         2.85    8592.1347    975860.16   -1212312.3    472736.76   -739575.52      3790099 
   11500        2.875     8418.021    990412.47   -1202698.2    463157.07   -739541.16    3774286.5 
   11600          2.9    8268.1717    1001029.2   -1194457.7    454912.41   -739545.26    3758474.1 
   11700        2.925    8073.6506    1017091.8   -1183754.1    444209.92   -739544.21    3742661.6 
   11800         2.95    7870.4005    1038170.2   -1172564.6    433027.15   -739537.45    3726849.1 
   11900        2.975    7642.2021    1058375.8   -1160026.5    420471.74   -739554.72    3711036.7 
   12000            3    7387.6102    1079254.8   -1145972.9    406464.17   -739508.68    3695224.2 
   12100        3.025     7139.737    1102826.1   -1132330.7    392826.26   -739504.41    3679411.8 
   12200         3.05    6877.2375    1126884.8   -1117871.3    378383.61   -739487.67    3663599.3 
   12300        3.075    6620.5193    1151329.3   -1103755.1    364259.05   -739496.03    3647786.9 
   12400          3.1    6353.0114    1176196.9   -1089033.4    349540.85   -739492.53    3631974.4 
   12500        3.125    6111.9714    1200981.4   -1075774.3     336278.9   -739495.37    3616161.9 
   12600         3.15    5870.8842    1225233.6     -1062550    323014.35   -739535.67    3600349.5 
   12700        3.175    5663.7525    1249094.9   -1051088.1    311618.02    -739470.1      3584537 
   12800          3.2    5465.4465    1270957.2     -1040185    300707.28   -739477.73    3568724.6 
   12900        3.225    5298.3712    1291515.9   -1031022.3    291514.85   -739507.42    3552912.1 
   13000         3.25    5149.3917    1310673.4   -1022804.1    283318.04   -739486.07    3537099.6 
   13100        3.275    5028.3178    1328202.2   -1016145.4    276656.59   -739488.81    3521287.2 
   13200          3.3    4913.0436    1344379.8   -1009797.1    270314.23   -739482.83    3505474.7 
   13300        3.325    4813.6045    1359274.5   -1004337.7    264843.13   -739494.59    3489662.3 
   13400         3.35    4724.8092    1373631.6   -999385.31    259957.63   -739427.68    3473849.8 
   13500        3.375    4644.6317    1387063.7   -994977.02    255546.29   -739430.73    3458037.3 
   13600          3.4    4571.6582    1400384.5   -990987.94    251531.31   -739456.63    3442224.9 
   13700        3.425    4514.3953    1413315.8   -987855.65    248380.72   -739474.93    3426412.4 
   13800         3.45    4463.9476    1426290.4   -985038.65     245605.1   -739433.55      3410600 
   13900        3.475    4402.0194    1440101.5   -981627.12    242197.83   -739429.29    3394787.5 
   14000          3.5    4316.1941    1456103.9   -976900.39    237475.75   -739424.64      3378975 
   14100        3.525    4300.9622    1466233.8   -976101.67    236637.69   -739463.98    3363162.6 
   14200         3.55    4407.7108    1463877.4   -981928.45    242510.97   -739417.48    3347350.1 
   14300        3.575    4361.4974      1461962   -979395.76    239968.32   -739427.44    3331537.7 
   14400          3.6    4415.2147    1460934.9   -982282.89    242923.83   -739359.06    3315725.2 
   14500        3.625     4468.642    1463925.9   -985169.02    245863.39   -739305.63    3299912.7 
   14600         3.65     4463.346    1474870.6   -979591.87       245572   -734019.87    3284100.3 
   14700        3.675    4865.8568    1496392.3   -963776.41    267718.03   -696058.38    3268287.8 
   14800          3.7    4989.7582    1515837.7   -944559.34    274535.05    -670024.3    3252475.4 
   14900        3.725    4925.1979    1552886.1   -921857.67    270982.96   -650874.71    3236662.9 
   15000         3.75    5157.1919    1604274.9   -891023.87     283747.2   -607276.66    3220850.4 
   15100        3.775    5401.7447    1653885.3   -854055.66    297202.43   -556853.24      3205038 
   15200          3.8    5574.4216      1718984   -819652.31    306703.06   -512949.25    3189225.5 
   15300        3.825    5919.4744      1777164   -782650.46    325687.76    -456962.7    3173413.1 
   15400         3.85    6385.2691    1840276.9   -748112.28    351315.65   -396796.62    3157600.6 
   15500        3.875    6782.3801    1900836.5   -715162.15    373164.59   -341997.56    3141788.1 
   15600          3.9     7223.198    1959884.8   -682834.15    397418.26   -285415.89    3125975.7 
   15700        3.925    7686.5223    2019435.6   -652650.06    422910.23   -229739.83    3110163.2 
   15800         3.95    8094.4503    2077610.5   -622669.37    445354.31   -177315.06    3094350.8 
   15900        3.975    8503.1445    2134481.6   -593564.22    467840.54   -125723.68    3078538.3 
   16000            4    8920.4285    2190519.6   -564879.75    490799.39   -74080.361    3062725.8 
   16100        4.025    9332.5689    2246145.8   -538259.58    513475.23   -24784.347    3046913.4 
   16200         4.05    9736.8379    2299883.8    -511689.2    535717.99    24028.791    3031100.9 
   16300        4.075    10161.984    2353543.5      -487019    559109.41    72090.414    3015288.5 
   16400          4.1    10583.015    2408040.1   -463335.22     582274.4    118939.19      2999476 
   16500        4.125    10930.027    2465451.3   -436561.92    601366.91    164804.99    2983663.5 
   16600         4.15    11264.017    2526397.6   -409463.19    619742.94    210279.75    2967851.1 
   16700        4.175    11680.312      2577305   -387113.12    642647.39    255534.27    2952038.6 
   16800          4.2    12235.735    2607866.7    -372968.5    673206.58    300238.08    2936226.2 
   16900        4.225    12739.627    2635816.3   -357334.79    700930.58    343595.79    2920413.7 
   17000         4.25    13221.051    2680239.4   -340207.03    727418.38    387211.35    2904601.2 
   17100        4.275    13577.995    2739441.4   -316931.19    747057.34    430126.15    2888788.8 
   17200          4.3    13846.647    2799985.3   -288772.39    761838.48     473066.1    2872976.3 
   17300        4.325    14024.286    2854323.6   -256118.03    771612.14    515494.12    2857163.9 
   17400         4.35    14170.887      2917633   -220938.86    779678.07    558739.21    2841351.4 
   17500        4.375     14320.65    2986854.4    -185987.2    787918.02    601930.82      2825539 
   17600          4.4    14445.658    3055042.2   -148695.89    794795.92    646100.04    2809726.5 
   17700        4.425    14595.723    3125715.1   -111361.65    803052.43    691690.79      2793914 
   17800         4.45    14764.488    3200766.4   -75797.683    812337.87    736540.19    2778101.6 
   17900        4.475    14898.194    3275640.9   -40300.533    819694.32    779393.79    2762289.1 
   18000          4.5    15009.277    3351728.8   -6502.4881    825806.09     819303.6    2746476.7 
   18100        4.525    15068.635      3429103    27658.967    829071.93     856730.9    2730664.2 
   18200         4.55    15032.472    3508780.8    63463.389    827082.24    890545.63    2714851.7 
   18300        4.575    15045.692    3583799.1    95132.868    827809.62    922942.49    2699039.3 
   18400          4.6    15128.734    3653339.6    122303.85    832378.54    954682.39    2683226.8 
   18500        4.625    15351.137      3713482    143430.37     844615.1    988045.48    2667414.4 
   18600         4.65    15735.372    3763552.9    160123.65    865755.58    1025879.2    2651601.9 
   18700        4.675    16241.779    3814972.2    177472.57    893617.98    1071090.5    2635789.4 
   18800          4.7    16902.006    3876796.8    195469.52    929943.44      1125413      2619977 
   18900        4.725    17608.632    3950200.5    215348.08    968821.81    1184169.9    2604164.5 
   19000         4.75    18384.778    4030354.7     234887.1    1011525.2    1246412.3    2588352.1 
   19100        4.775    19214.641    4111887.9    255650.74      1057184    1312834.7    2572539.6 
   19200          4.8    20085.742    4193577.1    276064.28    1105111.7      1381176    2556727.1 
   19300        4.825    21033.283    4277309.1    293335.51    1157245.1    1450580.7    2540914.7 
   19400         4.85    21951.679    4368268.5     312773.8      1207775    1520548.8    2525102.2 
   19500        4.875    22677.265    4469711.7    342590.07    1247696.5    1590286.6    2509289.8 
   19600          4.9    23279.363    4577350.8    379765.42    1280823.8    1660589.2    2493477.3 
   19700        4.925    23871.453    4683961.7    416053.28    1313400.4    1729453.7    2477664.8 
   19800         4.95    24447.322    4785910.5    452279.89    1345084.6    1797364.5    2461852.4 
   19900        4.975    25100.721    4883075.7    484447.53    1381034.4    1865481.9    2446039.9 
   20000            5    25727.539    4978167.5    516613.58    1415521.7    1932135.3    2430227.5 
   20100        5.025    26366.324    5073496.7    546701.05    1450667.5    1997368.6      2414415 
   20200         5.05    27013.005    5178127.9     577281.9    1486247.7    2063529.6    2398602.5 
   20300        5.075    27650.603    5283851.8     607769.9    1521328.2    2129098.1    2382790.1 
   20400          5.1    28301.261    5386376.6    635770.55    1557127.2    2192897.8    2366977.6 
   20500        5.125    28947.212      5485194    663485.67    1592667.2    2256152.9    2351165.2 
   20600         5.15    29309.238    5596223.9    704127.67    1612585.8    2316713.5    2335352.7 
   20700        5.175    29323.854    5736609.4    762008.71    1613389.9    2375398.7    2319540.2 
   20800          5.2    29257.941    5889664.6    820057.97    1609763.4    2429821.4    2303727.8 
   20900        5.225    29004.909    6043159.2    885474.38    1595841.7      2481316    2287915.3 
   21000         5.25    28581.962    6204377.4    956014.48    1572571.3    2528585.8    2272102.9 
   21100        5.275    28081.418    6377184.4    1027650.9    1545031.5    2572682.4    2256290.4 
   21200          5.3    27392.301    6551151.9    1105570.9    1507116.4    2612687.3    2240477.9 
   21300        5.325    26680.214    6719764.3    1182480.6    1467937.6    2650418.2    2224665.5 
   21400         5.35    25991.345    6886777.4    1255397.6    1430036.3    2685433.8      2208853 
   21500        5.375    25285.473    7049738.5    1327633.6    1391199.4      2718833    2193040.6 
   21600          5.4    24398.253      7220457    1407841.1    1342384.8    2750225.9    2177228.1 
   21700        5.425    23381.378    7393348.2      1494908    1286436.6    2781344.7    2161415.6 
   21800         5.45    22314.354      7580497    1583196.5    1227729.3    2810925.8    2145603.2 
   21900        5.475    21164.102    7782751.8    1676711.3    1164442.7      2841154    2129790.7 
   22000          5.5    20047.429    7980813.4    1768136.3    1103003.8      2871140    2113978.3 
   22100        5.525    18966.105    8179676.5    1857894.5    1043509.6    2901404.1    2098165.8 
   22200         5.55    17936.789    8381908.3    1945034.3    986876.93    2931911.2    2082353.3 
   22300        5.575    16938.572    8584185.1    2029841.1    931955.34    2961796.5    2066540.9 
   22400          5.6    15992.936    8785910.4    2112970.4    879926.72    2992897.1    2050728.4 
   22500        5.625    15199.585    8978602.8    2187302.1    836276.74    3023578.8      2034916 
   22600         5.65    14557.991    9155027.8    2254242.6    800976.46      3055219    2019103.5 
   22700        5.675     14097.86      9319032    2313126.6    775660.19    3088786.8    2003291.1 
   22800          5.7    13732.781    9495673.6    2370913.9    755573.65    3126487.6    1987478.6 
   22900        5.725    13500.236      9688486    2427207.9    742779.05    3169986.9    1971666.1 
   23000         5.75    13380.577    9886004.5    2485064.1    736195.44    3221259.5    1955853.7 
   23100        5.775    13364.111     10088302    2543266.6     735289.5    3278556.1    1940041.2 
   23200          5.8    13385.804     10298572    2601485.9    736483.03    3337968.9    1924228.8 
   23300        5.825    13470.243     10523263      2659930    741128.87    3401058.9    1908416.3 
   23400         5.85    13453.414     10759222    2727922.7    740202.96    3468125.7    1892603.8 
   23500        5.875    13245.369     11019293    2808578.8    728756.36    3537335.2    1876791.4 
   23600          5.9    13112.943     11286500    2891925.9    721470.32    3613396.2    1860978.9 
   23700        5.925    13170.574     11571567    2985321.9    724641.18    3709963.1    1845166.5 
   23800         5.95    13745.893     11930980    3109389.7    756295.02    3865684.7      1829354 
   23900        5.975     14845.01     12331989    3246435.8    816768.17    4063203.9    1813541.5 
   24000            6    15679.418     12742162    3394724.4    862677.06    4257401.5    1797729.1 
   24100        6.025    16651.634     13172678    3547091.9     916168.1      4463260    1781916.6 
   24200         6.05    17772.779     13626164    3700760.9    977853.15    4678614.1    1766104.2 
   24300        6.075    18517.676     14088841    3866957.6    1018837.2    4885794.7    1750291.7 
   24400          6.1    19157.705     14563598    4039939.8    1054051.4    5093991.2    1734479.2 
   24500        6.125    19724.463     15052894    4216852.8    1085234.2    5302087.1    1718666.8 
   24600         6.15    20110.205     15561180    4402452.2    1106457.7    5508909.8    1702854.3 
   24700        6.175    20603.374     16073076    4590259.5    1133591.6    5723851.2    1687041.9 
   24800          6.2    21332.589     16595520    4772021.1    1173712.9      5945734    1671229.4 
   24900        6.225    22313.469     17122336    4942092.2    1227680.6    6169772.8    1655416.9 
   25000         6.25    23636.845     17643176    5094310.1    1300492.4    6394802.5    1639604.5 
   25100        6.275    25307.184     18156832    5230117.9    1392393.9    6622511.8      1623792 
   25200          6.3    27317.502     18694714    5359218.9      1503001      6862220    1607979.6 
   25300        6.325    29488.783     19259901    5489505.1    1622464.3    7111969.4    1592167.1 
   25400         6.35    31741.464     19823182    5618416.3    1746406.2    7364822.5    1576354.6 
   25500        6.375    34072.356     20393129    5743722.2    1874651.1    7618373.3    1560542.2 
   25600          6.4    36421.696     20975771    5867646.9    2003911.2    7871558.1    1544729.7 
   25700        6.425    38463.913     21576813    6001742.8    2116273.3    8118016.1    1528917.3 
   25800         6.45    39588.141     22228668    6177406.7      2178128    8355534.7    1513104.8 
   25900        6.475    39302.432     22929312    6419539.9    2162408.4    8581948.3    1497292.3 
   26000          6.5    38519.339     23638634    6679956.7    2119322.9    8799279.5    1481479.9 
   26100        6.525    37217.457     24362372    6954988.7    2047693.7    9002682.4    1465667.4 
   26200         6.55    35481.737     25106256    7240680.5    1952194.9    9192875.3      1449855 
   26300        6.575    33713.742     25880247      7519862    1854920.3    9374782.3    1434042.5 
   26400          6.6    31535.152     26601167    7817024.8    1735054.9    9552079.7      1418230 
   26500        6.625    29004.649     27384235      8133984    1595827.4    9729811.3    1402417.6 
   26600         6.65    26627.674     28195966    8446450.5    1465046.9    9911497.4    1386605.1 
   26700        6.675    24722.801     29010434    8734722.3    1360241.4     10094964    1370792.7 
   26800          6.7    23650.054     29829503    8977418.2    1301219.1     10278637    1354980.2 
   26900        6.725    22983.343     30594543    9198528.4    1264536.9     10463065    1339167.7 
   27000         6.75    22148.481     31422342    9429447.8      1218603     10648051    1323355.3 
   27100        6.775    21166.361     32309083    9669584.1      1164567     10834151    1307542.8 
   27200          6.8    20308.542     33192992    9907529.3    1117370.1     11024899    1291730.4 
   27300        6.825    20118.448     34159443     10139745    1106911.2     11246656    1275917.9 
   27400         6.85    20622.785     35181363     10460827    1134659.7     11595487    1260105.4 
   27500        6.875    22557.567     36454399     10867177    1241110.8     12108287      1244293 
   27600          6.9    23459.291     37867978     11323855    1290723.4     12614578    1228480.5 
   27700        6.925    25311.756     39335172     11772081    1392645.5     13164726    1212668.1 
   27800         6.95    27782.377     40612829     12197418    1528578.3     13725996    1196855.6 
   27900        6.975    29556.824     42072524     12658359    1626207.9     14284567    1181043.2 
   28000            7    30943.228     43634886     13128754    1702487.4     14831241    1165230.7 
   28100        7.025    32301.439     45235032     13563911    1777215.8     15341127    1149418.2 
   28200         7.05    35449.997     46656597     13902772    1950448.6     15853221    1133605.8 
   28300        7.075    39235.034     48246715     14249682    2158700.2     16408382    1117793.3 
   28400          7.1     42854.86     50047138     14638327      2357862     16996189    1101980.9 
   28500        7.125    45844.069     51944070     15043234    2522327.4     17565561    1086168.4 
   28600         7.15    48058.943     53625431     15494865    2644189.1     18139054    1070355.9 
   28700        7.175    47274.496     55324838     16087357    2601029.1     18688386    1054543.5 
   28800          7.2    44474.885     57009968     16743993    2446995.3     19190988      1038731 
   28900        7.225    41263.038     58779600     17374536    2270280.4     19644816    1022918.6 
   29000         7.25     37548.82     60534301     17994027    2065925.2     20059952    1007106.1 
   29100        7.275    33608.199     62234508     18641585    1849113.4     20490698    991293.64 
   29200          7.3    31007.897     64115168     19253043    1706045.5     20959088    975481.18 
   29300        7.325    30930.918     66212445     19739333    1701810.1     21441144    959668.72 
   29400         7.35    30790.584     68331964     20252727      1694089     21946816    943856.26 
   29500        7.375    29884.362     70426955     20841514    1644228.9     22485743     928043.8 
   29600          7.4    30112.012     72892636     21495435    1656754.2     23152189    912231.34 
   29700        7.425    32990.703     75903417     22323993    1815138.9     24139132    896418.88 
   29800         7.45    35920.029     79033602     23191017    1976309.6     25167326    880606.42 
   29900        7.475     39672.92     82361664     24023310    2182792.5     26206103    864793.96 
   30000          7.5    42036.147     85712118     24894582    2312816.6     27207399     848981.5 
   30100        7.525    45097.525     89110601     25685645    2481252.8     28166898    833169.04 
   30200         7.55    51090.401     92667115     26356266      2810979     29167245    817356.58 
   30300        7.575    56438.042     96359573     27123481    3105204.7     30228686    801544.12 
   30400          7.6    58506.074 1.0041425e+08     28042938    3218987.2     31261925    785731.66 
   30500        7.625    56124.614 1.0467349e+08     29164800      3087960     32252760     769919.2 
   30600         7.65    52468.202 1.0901399e+08     30270725    2886785.3     33157511    754106.74 
   30700        7.675    46777.914 1.1341061e+08     31426629    2573707.3     34000336    738294.28 
   30800          7.7    43170.781 1.1790053e+08     32475310    2375243.8     34850554    722481.82 
   30900        7.725    42725.991 1.226686e+08     33406650    2350771.6     35757422    706669.36 
   31000         7.75    42747.503 1.2793137e+08     34493548    2351955.2     36845504     690856.9 
   31100        7.775    46298.827 1.3477131e+08     35913864    2547348.1     38461212    675044.44 
   31200          7.8    52501.544 1.4199878e+08     37324797    2888619.7     40213417    659231.98 
   31300        7.825    55244.869 1.4955673e+08     38824723    3039556.7     41864279    643419.52 
   31400         7.85    61509.351 1.5732698e+08     40126193    3384226.7     43510419    627607.06 
   31500        7.875    69520.206 1.6565541e+08     41450341    3824981.6     45275322     611794.6 
   31600          7.9    68421.056 1.7481772e+08     43216518    3764506.7     46981025    595982.14 
   31700        7.925    64323.296 1.8427402e+08     45010977    3539049.1     48550026    580169.69 
   31800         7.95    57903.301 1.9416398e+08     46883542    3185822.8     50069365    564357.23 
   31900        7.975    56232.668 2.0441094e+08     48545947    3093905.1     51639852    548544.77 
   32000            8     57176.49 2.1666718e+08     50538809    3145833.9     53684643    532732.31 
   32100        8.025    67042.286 2.316072e+08     52812281    3688647.1     56500929    516919.85 
   32200         8.05     70610.26 2.4688912e+08     55145590      3884956     59030546    501107.39 
   32300        8.075    81025.431 2.6336095e+08     57306441    4457995.7     61764437    485294.93 
   32400          8.1    80339.176 2.8164117e+08     60035964    4420238.2     64456202    469482.47 
   32500        8.125    73909.962 3.007786e+08     62888568    4066504.7     66955073    453670.01 
   32600         8.15    71862.064 3.2127843e+08     65596359    3953829.9     69550189    437857.55 
   32700        8.175    75878.783 3.4649554e+08     68880240    4174828.7     73055069    422045.09 
   32800          8.2    86417.373 3.755211e+08     72385693    4754658.8     77140351    406232.63 
   32900        8.225    96836.206 4.066402e+08     75827941      5327900     81155841    390420.17 
   33000         8.25    93098.019 4.4138969e+08     80032169      5122226     85154395    374607.71 
   33100        8.275    88203.238 4.7895182e+08     84243727    4852916.6     89096643    358795.25 
   33200          8.3    95290.216 5.2542188e+08     89150988      5242840     94393828    342982.79 
   33300        8.325    109401.34 5.7873456e+08     94265048      6019230 1.0028428e+08    327170.33 
   33400         8.35    109256.11 6.3881918e+08 1.0016576e+08    6011239.7  1.06177e+08    311357.87 
   33500        8.375    106247.62 7.0637725e+08 1.0634456e+08    5845713.2 1.1219027e+08    295545.41 
   33600          8.4    123302.35 7.9173631e+08 1.1357172e+08    6784059.5 1.2035578e+08    279732.95 
   33700        8.425    126517.41 8.8904699e+08 1.215486e+08    6960951.1 1.2850955e+08    263920.49 
   33800         8.45    126184.92 1.0037546e+09 1.3042308e+08    6942657.5 1.3736574e+08    248108.03 
   33900        8.475    150044.08 1.1490918e+09 1.4058132e+08    8255381.9 1.4883671e+08    232295.57 
   34000          8.5    145843.86 1.3199997e+09 1.5233246e+08    8024286.8 1.6035674e+08    216483.11 
   34100        8.525    167707.92 1.5400098e+09 1.6588324e+08    9227241.2 1.7511048e+08    200670.65 
   34200         8.55    167993.88 1.8117952e+09 1.8173785e+08    9242974.6 1.9098082e+08    184858.19 
   34300        8.575    193482.98 2.1719597e+09 2.0066509e+08     10645377 2.1131047e+08    169045.73 
   34400          8.6    208800.68 2.644735e+09 2.2352659e+08     11488153 2.3501475e+08    153233.28 
   34500        8.625    227330.53 3.2881524e+09 2.5150667e+08     12507660 2.6401433e+08    137420.82 
   34600         8.65     257120.1 4.2017356e+09 2.8678075e+08     14146673 3.0092742e+08    121608.36 
   34700        8.675    300001.27 5.5601431e+09 3.3267294e+08     16505983 3.4917893e+08     105795.9 
   34800          8.7    371956.25 7.6858388e+09 3.9406559e+08     20464925 4.1453052e+08    89983.437 
ERROR: Lost atoms: original 425652 current 425647 (../thermo.cpp:439)
Last command: run 50000
