LAMMPS (29 Sep 2021)
  using 1 OpenMP thread(s) per MPI task
Reading data file ...
  orthogonal box = (0.28991511 0.25259767 0.0000000) to (102.98474 102.52206 526.16902)
  3 by 2 by 16 MPI processor grid
  reading atoms ...
  448248 atoms
  reading velocities ...
  448248 velocities
  read_data CPU = 4.137 seconds
224129 atoms in group g_left
224119 atoms in group g_right

CITE-CITE-CITE-CITE-CITE-CITE-CITE-CITE-CITE-CITE-CITE-CITE-CITE

Your simulation uses code contributions which should be cited:
- @article{cjiang2012
The log file lists these citations in BibTeX format.

CITE-CITE-CITE-CITE-CITE-CITE-CITE-CITE-CITE-CITE-CITE-CITE-CITE

Neighbor list info ...
  update every 1 steps, delay 10 steps, check yes
  max neighbors/atom: 2000, page size: 100000
  master list distance cutoff = 8.28721
  ghost atom cutoff = 8.28721
  binsize = 4.143605, bins = 25 25 127
  3 neighbor lists, perpetual/occasional/extra = 3 0 0
  (1) pair eam/alloy, perpetual, skip from (3)
      attributes: half, newton on
      pair build: skip
      stencil: none
      bin: none
  (2) pair edip/multi, perpetual
      attributes: full, newton on
      pair build: full/bin/atomonly
      stencil: full/bin/3d
      bin: standard
  (3) neighbor class addition, perpetual, half/full from (2)
      attributes: half, newton on
      pair build: halffull/newton
      stencil: none
      bin: none
Setting up Verlet run ...
  Unit style    : metal
  Current step  : 0
  Time step     : 0.00025
Per MPI rank memory allocation (min/avg/max) = 8.748 | 12.74 | 15.04 Mbytes
Step Time Temp Press PotEng KinEng TotEng Volume 
       0            0    17996.238    198052.14     -2082515    1042710.5   -1039804.5    5526113.8 
     100        0.025    17995.052    198512.51   -2082505.4    1042641.8   -1039863.6      5510360 
     200         0.05    17995.028    199089.04   -2082499.2    1042640.4   -1039858.7    5494606.2 
     300        0.075    17995.739    199612.45   -2082506.4    1042681.6   -1039824.8    5478852.4 
     400          0.1    17995.972    200328.19   -2082514.8    1042695.1   -1039819.7    5463098.6 
     500        0.125    17995.604    200878.91   -2082511.4    1042673.8   -1039837.6    5447344.7 
     600         0.15    17995.003     201120.4   -2082499.3    1042638.9   -1039860.4    5431590.9 
     700        0.175    17995.131    202069.97     -2082506    1042646.4   -1039859.6    5415837.1 
     800          0.2    17995.452       202690   -2082515.6      1042665   -1039850.6    5400083.3 
     900        0.225    17995.126    203178.49   -2082512.4    1042646.1   -1039866.3    5384329.5 
    1000         0.25    17994.513     203833.3   -2082495.4    1042610.6   -1039884.8    5368575.7 
    1100        0.275    17994.792    204401.05   -2082515.2    1042626.8   -1039888.4    5352821.8 
    1200          0.3    17994.538    204843.55   -2082504.9      1042612   -1039892.9      5337068 
    1300        0.325    17994.792     205515.8   -2082539.3    1042626.7   -1039912.6    5321314.2 
    1400         0.35    17999.535    206236.29   -2082834.9    1042901.6   -1039933.3    5305560.4 
    1500        0.375    17995.347    207414.36     -2082589    1042658.9   -1039930.1    5289806.6 
    1600          0.4    17941.299    209351.75   -2079436.9    1039527.3   -1039909.6    5274052.8 
    1700        0.425    17894.274    213197.16   -2076710.1    1036802.7   -1039907.4    5258298.9 
    1800         0.45    17845.644    217633.99   -2073911.1      1033985   -1039926.1    5242545.1 
    1900        0.475    17795.868    221828.95   -2071025.2      1031101   -1039924.2    5226791.3 
    2000          0.5    17748.851    226337.97   -2068284.6    1028376.8   -1039907.8    5211037.5 
    2100        0.525    17703.105    230162.14   -2065636.8    1025726.3   -1039910.5    5195283.7 
    2200         0.55    17644.336    234243.16   -2062252.8    1022321.2   -1039931.6    5179529.8 
    2300        0.575    17532.602    242034.68   -2055800.6    1015847.2   -1039953.4      5163776 
    2400          0.6     17422.78    249135.81   -2049444.1    1009484.1     -1039960    5148022.2 
    2500        0.625    17297.709    255353.93   -2042199.5    1002237.4   -1039962.1    5132268.4 
    2600         0.65    17185.981    264116.73   -2035733.1    995763.84   -1039969.3    5116514.6 
    2700        0.675    17056.508    271354.53   -2028232.9    988262.13   -1039970.8    5100760.8 
    2800          0.7    16921.437    277213.22   -2020403.6    980436.07   -1039967.6    5085006.9 
    2900        0.725    16790.473    285552.42   -2012809.4    972847.92   -1039961.5    5069253.1 
    3000         0.75    16653.373    294759.63   -2004872.8    964904.28   -1039968.5    5053499.3 
    3100        0.775    16509.445    303865.65   -1996545.4    956565.06   -1039980.4    5037745.5 
    3200          0.8    16363.824    313220.98     -1988115    948127.71   -1039987.3    5021991.7 
    3300        0.825    16214.934    323477.73   -1979479.4    939500.94   -1039978.4    5006237.9 
    3400         0.85     16064.93    334191.85   -1970783.1    930809.66   -1039973.4      4990484 
    3500        0.875    15913.334    345015.11   -1962019.4    922026.06   -1039993.3    4974730.2 
    3600          0.9    15758.595    355890.67   -1953077.2    913060.41   -1040016.8    4958976.4 
    3700        0.925    15603.388    367184.04   -1944087.4    904067.69   -1040019.7    4943222.6 
    3800         0.95    15450.118    378752.45   -1935195.4    895187.13   -1040008.3    4927468.8 
    3900        0.975     15295.77    390321.67   -1926255.8    886244.13   -1040011.7    4911714.9 
    4000            1    15141.023    401590.94   -1917301.9    877278.02   -1040023.9    4895961.1 
    4100        1.025    14985.881    413259.29   -1908323.9    868289.02   -1040034.9    4880207.3 
    4200         1.05    14833.555    424727.04   -1899503.2    859463.17     -1040040    4864453.5 
    4300        1.075    14679.636    436451.48   -1890584.5    850545.04   -1040039.5    4848699.7 
    4400          1.1    14525.399    447557.48     -1881657    841608.46   -1040048.5    4832945.9 
    4500        1.125    14371.195    458761.97   -1872729.6    832673.81   -1040055.8      4817192 
    4600         1.15    14220.898    470650.27   -1864013.6    823965.55   -1040048.1    4801438.2 
    4700        1.175     14068.79    482454.71   -1855182.5    815152.36   -1040030.1    4785684.4 
    4800          1.2    13915.563    493489.62   -1846307.7    806274.28   -1040033.4    4769930.6 
    4900        1.225    13764.037    504758.57   -1837551.6    797494.78   -1040056.8    4754176.8 
    5000         1.25    13612.944    516351.18   -1828808.7    788740.38   -1040068.3      4738423 
    5100        1.275    13462.407     527313.8     -1820095    780018.22   -1040076.8    4722669.1 
    5200          1.3    13307.058    538257.87   -1811088.6    771017.23   -1040071.4    4706915.3 
    5300        1.325    13164.138    550944.32   -1802803.1    762736.39   -1040066.8    4691161.5 
    5400         1.35    12994.348    567668.19   -1792956.8    752898.64   -1040058.1    4675407.7 
    5500        1.375    12931.992    584682.35   -1789320.5    749285.75   -1040034.8    4659653.9 
    5600          1.4    12791.593    598047.43   -1781166.1    741150.93   -1040015.2      4643900 
    5700        1.425    12742.165    610525.26   -1778299.6    738287.07   -1040012.5    4628146.2 
    5800         1.45    12629.079     615989.3     -1771755    731734.79   -1040020.2    4612392.4 
    5900        1.475     12562.13    631102.75   -1767880.8    727855.75     -1040025    4596638.6 
    6000          1.5     12486.36    642400.49     -1763473    723465.58   -1040007.5    4580884.8 
    6100        1.525    12409.215    646587.77   -1758974.8    718995.79     -1039979      4565131 
    6200         1.55    12335.879    654443.31   -1754690.5    714746.65   -1039943.8    4549377.1 
    6300        1.575    12248.282    666517.27   -1749590.1    709671.26   -1039918.8    4533623.3 
    6400          1.6    12143.281     677207.9   -1743506.4    703587.44   -1039918.9    4517869.5 
    6500        1.625    12034.002    689506.66   -1737182.9    697255.74   -1039927.2    4502115.7 
    6600         1.65    11920.911    702735.97   -1730632.2    690703.21     -1039929    4486361.9 
    6700        1.675    11796.637     716909.9   -1723417.6     683502.7   -1039914.9      4470608 
    6800          1.7    11675.415    728307.06   -1716381.5    676479.08   -1039902.4    4454854.2 
    6900        1.725    11553.928    740661.73   -1709341.7    669440.07   -1039901.7    4439100.4 
    7000         1.75    11415.357    753688.02   -1701306.9    661411.16   -1039895.7    4423346.6 
    7100        1.775    11281.636    767241.48   -1693529.7    653663.34   -1039866.4    4407592.8 
    7200          1.8    11149.122    781028.03   -1685829.2    645985.38   -1039843.8      4391839 
    7300        1.825    11018.899    793932.85   -1678284.2    638440.21     -1039844    4376085.1 
    7400         1.85    10868.316    807782.34   -1669551.9    629715.38   -1039836.5    4360331.3 
    7500        1.875    10730.216    823597.01   -1661530.9    621713.76   -1039817.2    4344577.5 
    7600          1.9     10579.81    837132.05   -1652806.8    612999.17   -1039807.6    4328823.7 
    7700        1.925    10424.368    852350.66   -1643801.9    603992.82   -1039809.1    4313069.9 
    7800         1.95    10260.931    867235.78   -1634341.1    594523.21   -1039817.9    4297316.1 
    7900        1.975    10105.232    882763.98   -1625320.1    585501.92   -1039818.2    4281562.2 
    8000            2    9944.7687    896812.69   -1616000.5    576204.59   -1039795.9    4265808.4 
    8100        2.025    9783.4712    910522.11   -1606635.5    566858.94   -1039776.6    4250054.6 
    8200         2.05    9624.3037    923601.34   -1597398.7     557636.7     -1039762    4234300.8 
    8300        2.075    9469.9144    937876.23   -1588442.7    548691.31   -1039751.4      4218547 
    8400          2.1    9320.5106    951312.43   -1579790.7    540034.79   -1039755.9    4202793.1 
    8500        2.125    9175.8942    963788.38   -1571420.6    531655.64   -1039764.9    4187039.3 
    8600         2.15    9032.0368    977042.13     -1563089    523320.48   -1039768.5    4171285.5 
    8700        2.175    8893.3548    990702.76   -1555060.3    515285.18   -1039775.1    4155531.7 
    8800          2.2    8759.3029    1001983.3   -1547297.7    507518.14   -1039779.5    4139777.9 
    8900        2.225     8622.441    1015067.8   -1539363.5     499588.3   -1039775.2    4124024.1 
    9000         2.25    8523.9566      1024271   -1533653.3    493882.07   -1039771.2    4108270.2 
    9100        2.275    8608.4743    1025509.4   -1538538.2    498779.07   -1039759.1    4092516.4 
    9200          2.3    8522.3415    1023555.9   -1533525.6    493788.49   -1039737.1    4076762.6 
    9300        2.325    8451.5949    1022749.9   -1529417.3     489689.4   -1039727.9    4061008.8 
    9400         2.35    8475.9847    1022758.4   -1530849.5    491102.56   -1039746.9      4045255 
    9500        2.375    8476.7102    1027607.8   -1530916.3    491144.59   -1039771.7    4029501.2 
    9600          2.4    8441.5046    1031880.7   -1528893.5    489104.76   -1039788.8    4013747.3 
    9700        2.425    8469.4237    1032600.9   -1530523.3    490722.41   -1039800.9    3997993.5 
    9800         2.45    8425.6322    1032188.2   -1527989.3    488185.11   -1039804.2    3982239.7 
    9900        2.475    8420.8366    1032616.3   -1527707.9    487907.25   -1039800.7    3966485.9 
   10000          2.5    8414.5022    1033185.2   -1527336.4    487540.23   -1039796.1    3950732.1 
   10100        2.525    8395.7554      1034091   -1526240.4    486454.03   -1039786.3    3934978.2 
   10200         2.55    8310.0095    1042488.5   -1521264.9    481485.88   -1039779.1    3919224.4 
   10300        2.575    8279.2012    1047601.8   -1519485.9    479700.83   -1039785.1    3903470.6 
   10400          2.6    8077.6107    1049005.6   -1507819.3    468020.58   -1039798.8    3887716.8 
   10500        2.625    8019.0406    1059213.2   -1504437.5       464627   -1039810.5      3871963 
   10600         2.65    7855.6707    1070364.4   -1494968.1    455161.27   -1039806.9    3856209.2 
   10700        2.675    7700.0689    1075939.5   -1485931.5    446145.63   -1039785.9    3840455.3 
   10800          2.7    7510.9168    1087912.6   -1474946.7    435186.07   -1039760.7    3824701.5 
   10900        2.725    7343.2203    1102684.8   -1465223.5    425469.65   -1039753.8    3808947.7 
   11000         2.75    7147.3729    1115850.3   -1453889.5    414122.16   -1039767.3    3793193.9 
   11100        2.775    6947.3878    1130058.7   -1442312.6    402534.93   -1039777.6    3777440.1 
   11200          2.8    6753.5957    1146626.8   -1431077.9    391306.52   -1039771.3    3761686.3 
   11300        2.825    6562.4295      1161657   -1419992.1    380230.26   -1039761.9    3745932.4 
   11400         2.85    6376.8893    1177893.4   -1409252.4    369479.98   -1039772.4    3730178.6 
   11500        2.875    6198.6873    1195187.2   -1398940.5    359154.87   -1039785.6    3714424.8 
   11600          2.9    6040.4017    1212288.8   -1389765.2    349983.72   -1039781.5      3698671 
   11700        2.925    5889.8554    1228442.8   -1381035.4       341261   -1039774.4    3682917.2 
   11800         2.95    5748.0502    1245545.3   -1372823.1    333044.74   -1039778.4    3667163.3 
   11900        2.975    5621.9675    1261745.4   -1365521.3    325739.45   -1039781.9    3651409.5 
   12000            3    5505.5343    1278666.5   -1358770.8    318993.26   -1039777.5    3635655.7 
   12100        3.025    5390.4538    1296208.8     -1352102    312325.44   -1039776.5    3619901.9 
   12200         3.05      5285.65    1316745.5   -1346039.5    306253.06   -1039786.4    3604148.1 
   12300        3.075    5174.1896      1333441   -1339591.2    299794.99   -1039796.3    3588394.3 
   12400          3.1    5077.1935    1352805.8   -1333970.9    294174.99   -1039795.9    3572640.4 
   12500        3.125    4963.5175    1370674.1     -1327385    287588.55   -1039796.5    3556886.6 
   12600         3.15    4844.5237    1389075.9   -1320490.4    280693.99   -1039796.4    3541132.8 
   12700        3.175    4716.3649    1407686.6   -1313062.1    273268.41   -1039793.7      3525379 
   12800          3.2    4594.6099    1426525.7   -1306009.3    266213.87   -1039795.4    3509625.2 
   12900        3.225    4454.3262    1445206.5   -1297889.5    258085.76   -1039803.7    3493871.4 
   13000         3.25    4321.5894    1467285.4   -1290206.6    250394.93   -1039811.6    3478117.5 
   13100        3.275     4178.237    1491666.1   -1281899.5    242089.02   -1039810.4    3462363.7 
   13200          3.3    4076.3571    1513560.7   -1275996.7    236186.06   -1039810.6    3446609.9 
   13300        3.325    4132.2341    1527504.6   -1279242.8     239423.6   -1039819.2    3430856.1 
   13400         3.35    4060.7066      1534854   -1275107.8    235279.26   -1039828.5    3415102.3 
   13500        3.375    4028.6285    1545617.2   -1273251.8    233420.64   -1039831.1    3399348.4 
   13600          3.4    4054.0595      1556438   -1274629.1    234894.12   -1039734.9    3383594.6 
   13700        3.425    3976.8478      1567545   -1270255.6    230420.44   -1039835.2    3367840.8 
   13800         3.45    3950.8177      1584188   -1259776.6    228912.25   -1030864.3      3352087 
   13900        3.475    4490.2819    1608880.2   -1248782.6    260169.05   -988613.57    3336333.2 
   14000          3.5    4283.8542    1633178.1   -1218617.4    248208.54   -970408.88    3320579.4 
   14100        3.525    4402.6135    1670825.1   -1203579.5    255089.51   -948489.97    3304825.5 
   14200         3.55     4549.356    1720998.6   -1168851.3    263591.84   -905259.45    3289071.7 
   14300        3.575    4671.1499    1768955.8   -1135168.6    270648.63   -864519.97    3273317.9 
   14400          3.6    4904.5376    1832411.6   -1101650.9    284171.22    -817479.7    3257564.1 
   14500        3.625    5278.9644    1889964.2   -1066790.2    305865.69    -760924.5    3241810.3 
   14600         3.65    5592.5395    1947599.2   -1032950.8    324034.38   -708916.44    3226056.5 
   14700        3.675    5996.8994    2004220.2   -1001226.9    347463.18   -653763.67    3210302.6 
   14800          3.7    6455.1172    2060794.2   -970481.55    374012.54   -596469.02    3194548.8 
   14900        3.725    6883.4358    2116925.1    -941561.6    398829.52   -542732.09      3178795 
   15000         3.75    7316.0387    2172984.3   -913188.22    423894.73   -489293.48    3163041.2 
   15100        3.775    7740.7792      2226416   -884631.31     448504.4    -436126.9    3147287.4 
   15200          3.8    8163.9577    2283314.2   -856024.62    473023.56   -383001.06    3131533.5 
   15300        3.825    8519.7783    2340218.2   -825620.84    493639.98   -331980.86    3115779.7 
   15400         3.85    8849.8961    2401376.5   -794044.45    512767.16   -281277.29    3100025.9 
   15500        3.875    9164.3571    2460177.8   -761513.09    530987.18   -230525.91    3084272.1 
   15600          3.9    9411.2571    2522263.7   -725585.04    545292.68   -180292.36    3068518.3 
   15700        3.925    9669.1637    2585950.5    -689903.4    560235.91   -129667.49    3052764.5 
   15800         3.95    10046.529    2645321.7   -661230.07    582100.66   -79129.409    3037010.6 
   15900        3.975    10570.107    2682922.9   -640331.13    612436.97    -27894.16    3021256.8 
   16000            4    11156.027    2707027.4   -621587.35    646385.45      24798.1      3005503 
   16100        4.025    11727.253    2744885.1   -601118.52    679482.59    78364.068    2989749.2 
   16200         4.05    12241.177    2801740.2   -575582.19    709259.59     133677.4    2973995.4 
   16300        4.075    12733.406    2865482.4   -547271.19    737779.58    190508.39    2958241.5 
   16400          4.1    13161.875      2927353   -513283.57    762605.26    249321.69    2942487.7 
   16500        4.125    13593.886    2991450.3    -477544.3    787636.17    310091.87    2926733.9 
   16600         4.15    14060.479    3066932.7   -442115.44    814670.82    372555.38    2910980.1 
   16700        4.175     14551.02    3140318.2   -407020.03    843092.95    436072.92    2895226.3 
   16800          4.2     15027.51    3217205.6   -373739.88    870701.04    496961.16    2879472.5 
   16900        4.225      15404.1    3293213.2   -338645.96    892520.85    553874.89    2863718.6 
   17000         4.25    15744.971    3367108.2   -305605.32    912271.06    606665.74    2847964.8 
   17100        4.275    15948.512    3440310.4   -270224.42     924064.3    653839.88      2832211 
   17200          4.3    16096.101    3514721.9   -234749.83    932615.72    697865.89    2816457.2 
   17300        4.325    16214.439    3589288.8   -200996.57    939472.25    738475.67    2800703.4 
   17400         4.35    16361.194    3659560.5   -170185.35    947975.33    777789.98    2784949.6 
   17500        4.375    16607.283    3725962.2   -144317.69    962233.79     817916.1    2769195.7 
   17600          4.4     16914.59    3796087.4   -120209.03    980039.34    859830.31    2753441.9 
   17700        4.425    17364.792    3884536.4   -100219.59    1006124.2    905904.66    2737688.1 
   17800         4.45    17990.252    3983974.8     -84969.8    1042363.7     957393.9    2721934.3 
   17900        4.475    18690.583    4081436.6   -70318.208    1082941.2      1012623    2706180.5 
   18000          4.5    19418.667    4180794.7   -54109.397    1125126.7    1071017.3    2690426.6 
   18100        4.525    20195.533    4252399.4   -39475.748    1170138.7      1130663    2674672.8 
   18200         4.55    21008.676    4322633.2   -25134.507    1217252.6    1192118.1      2658919 
   18300        4.575    21834.052    4401200.4   -10938.184    1265075.3    1254137.1    2643165.2 
   18400          4.6    22518.259    4488402.6    11945.415    1304718.6      1316664    2627411.4 
   18500        4.625     23089.74      4590083     40395.44    1337830.4    1378225.9    2611657.6 
   18600         4.65    23627.685    4702899.7     71056.46    1368999.2    1440055.7    2595903.7 
   18700        4.675    24109.862    4822287.8    103199.49    1396936.8    1500136.3    2580149.9 
   18800          4.7    24531.268    4944215.1    138858.26    1421353.2    1560211.5    2564396.1 
   18900        4.725    24890.868    5052937.7    176540.91    1442188.6    1618729.6    2548642.3 
   19000         4.75    25297.611    5162921.2    212369.69    1465755.5    1678125.2    2532888.5 
   19100        4.775    25679.326    5265718.7    248492.53    1487872.3    1736364.8    2517134.7 
   19200          4.8    26109.375    5368790.2    283181.25    1512789.5    1795970.8    2501380.8 
   19300        4.825    26534.273    5468788.4     317089.9    1537408.3    1854498.2      2485627 
   19400         4.85    26987.504    5571418.3       349896    1563668.7    1913564.7    2469873.2 
   19500        4.875    27485.269    5660904.4    379394.47    1592509.5    1971903.9    2454119.4 
   19600          4.9    27971.352    5754131.6    409360.94    1620673.4    2030034.3    2438365.6 
   19700        4.925    28255.134    5851747.1    450048.49    1637115.8    2087164.3    2422611.7 
   19800         4.95    28100.716    5980500.6    513690.32    1628168.8    2141859.1    2406857.9 
   19900        4.975    27837.984    6132022.9    582467.67    1612945.9    2195413.6    2391104.1 
   20000            5    27295.486    6288364.6    664213.57    1581513.4    2245726.9    2375350.3 
   20100        5.025     26625.41    6455264.2       751342    1542688.8    2294030.8    2359596.5 
   20200         5.05    25912.771    6633250.2    837981.47    1501398.2    2339379.7    2343842.7 
   20300        5.075     25196.48    6809678.8     922436.1      1459896    2382332.1    2328088.8 
   20400          5.1    24489.239    6991095.2    1003504.7    1418918.1    2422422.8      2312335 
   20500        5.125    23814.067    7164805.4    1081012.9    1379798.3    2460811.2    2296581.2 
   20600         5.15    23029.228    7370505.7    1162559.5    1334324.4    2496883.9    2280827.4 
   20700        5.175    22198.269      7636770    1244768.3    1286178.2    2530946.5    2265073.6 
   20800          5.2    21468.569    7961226.2    1320406.8      1243899    2564305.8    2249319.8 
   20900        5.225    20592.408    8206147.5    1403161.2    1193133.9    2596295.1    2233565.9 
   21000         5.25    19767.658    8368092.9    1482540.8    1145347.4    2627888.2    2217812.1 
   21100        5.275    18930.059    8564987.3    1562139.1    1096816.5    2658955.6    2202058.3 
   21200          5.3    18038.509    8763130.5    1645570.9    1045159.7    2690730.7    2186304.5 
   21300        5.325     17149.75    8936470.1    1730055.1    993664.59    2723719.7    2170550.7 
   21400         5.35     16298.52    9141312.7    1813367.1    944343.92    2757711.1    2154796.8 
   21500        5.375    15578.812    9325224.6    1892964.5    902643.71    2795608.2      2139043 
   21600          5.4    15044.954    9501876.8    1966364.3    871711.72      2838076    2123289.2 
   21700        5.425    14821.598    9662578.1    2027927.2    858770.37    2886697.5    2107535.4 
   21800         5.45    14752.972    9827006.1    2083451.9    854794.16    2938246.1    2091781.6 
   21900        5.475    14728.004     10007346      2139925    853347.53    2993272.5    2076027.8 
   22000          5.5    14701.271     10190346    2197557.2    851798.57    3049355.8    2060273.9 
   22100        5.525    14769.116     10371809    2252868.7    855729.55    3108598.2    2044520.1 
   22200         5.55    14767.223     10552669    2313757.8    855619.88    3169377.7    2028766.3 
   22300        5.575    14594.046     10743716    2386289.1    845585.94    3231875.1    2013012.5 
   22400          5.6    14172.608     10964040    2473524.5    821167.61    3294692.1    1997258.7 
   22500        5.625    13775.227     11195736    2562049.5    798143.13    3360192.7    1981504.9 
   22600         5.65    13362.191     11440937      2653959    774211.65    3428170.6      1965751 
   22700        5.675    13269.635     11693234    2741830.3    768848.92    3510679.3    1949997.2 
   22800          5.7    13550.078     12021313      2866015    785097.92    3651112.9    1934243.4 
   22900        5.725    14749.239     12438680      3018985    854577.89    3873562.9    1918489.6 
   23000         5.75     15673.96     12851043    3180722.6    908156.62    4088879.2    1902735.8 
   23100        5.775    16713.501     13274877    3337144.1    968388.17    4305532.3    1886981.9 
   23200          5.8    17897.431     13712378    3497346.2    1036985.6    4534331.8    1871228.1 
   23300        5.825    18723.716     14158892    3666916.9    1084860.9    4751777.8    1855474.3 
   23400         5.85    19778.204     14611893    3822443.8    1145958.5    4968402.3    1839720.5 
   23500        5.875    20982.229     15074528    3974754.9    1215720.3    5190475.2    1823966.7 
   23600          5.9     22007.03     15574908    4136921.2    1275097.7      5412019    1808212.9 
   23700        5.925    22949.131     16061640    4309975.3    1329683.5    5639658.8      1792459 
   23800         5.95    23819.364     16530058    4484281.8    1380105.2      5864387    1776705.2 
