LAMMPS (29 Sep 2021)
  using 1 OpenMP thread(s) per MPI task
Reading data file ...
  orthogonal box = (-0.42701795 -0.41068915 0.0000000) to (102.17503 101.65870 526.16902)
  3 by 2 by 16 MPI processor grid
  reading atoms ...
  444272 atoms
  reading velocities ...
  444272 velocities
  read_data CPU = 4.256 seconds
222111 atoms in group g_left
222161 atoms in group g_right

CITE-CITE-CITE-CITE-CITE-CITE-CITE-CITE-CITE-CITE-CITE-CITE-CITE

Your simulation uses code contributions which should be cited:
- @article{cjiang2012
The log file lists these citations in BibTeX format.

CITE-CITE-CITE-CITE-CITE-CITE-CITE-CITE-CITE-CITE-CITE-CITE-CITE

Neighbor list info ...
  update every 1 steps, delay 10 steps, check yes
  max neighbors/atom: 2000, page size: 100000
  master list distance cutoff = 8.28721
  ghost atom cutoff = 8.28721
  binsize = 4.143605, bins = 25 25 127
  3 neighbor lists, perpetual/occasional/extra = 3 0 0
  (1) pair eam/alloy, perpetual, skip from (3)
      attributes: half, newton on
      pair build: skip
      stencil: none
      bin: none
  (2) pair edip/multi, perpetual
      attributes: full, newton on
      pair build: full/bin/atomonly
      stencil: full/bin/3d
      bin: standard
  (3) neighbor class addition, perpetual, half/full from (2)
      attributes: half, newton on
      pair build: halffull/newton
      stencil: none
      bin: none
Setting up Verlet run ...
  Unit style    : metal
  Current step  : 0
  Time step     : 0.00025
Per MPI rank memory allocation (min/avg/max) = 8.338 | 12.63 | 14.58 Mbytes
Step Time Temp Press PotEng KinEng TotEng Volume 
       0            0    2275.9346    21902.833   -2068809.1    130699.03     -1938110    5510320.4 
     100        0.025     2275.338    21820.524   -2068786.8    130664.78     -1938122    5505084.1 
     200         0.05    2275.5168    22057.535   -2068792.8    130675.04   -1938117.7    5499847.9 
     300        0.075    2275.9376    21967.658   -2068819.9    130699.21   -1938120.7    5494611.6 
     400          0.1    2275.4864    21821.601     -2068794     130673.3   -1938120.7    5489375.4 
     500        0.125    2275.4349    21926.248   -2068783.7    130670.34   -1938113.4    5484139.1 
     600         0.15    2275.5171    21912.012   -2068792.7    130675.06   -1938117.7    5478902.8 
     700        0.175    2275.7845    21922.984   -2068804.7    130690.41   -1938114.3    5473666.6 
     800          0.2    2275.7618     22052.07   -2068803.4    130689.11   -1938114.3    5468430.3 
     900        0.225    2275.6437    21979.093   -2068788.3    130682.33     -1938106      5463194 
    1000         0.25    2275.7258    22349.394   -2068792.2    130687.04   -1938105.1    5457957.8 
    1100        0.275    2276.0619    22360.006   -2068809.6    130706.35   -1938103.3    5452721.5 
    1200          0.3    2275.6089    22131.106   -2068794.8    130680.33   -1938114.4    5447485.2 
    1300        0.325    2275.5269    22350.131   -2068791.5    130675.62   -1938115.8      5442249 
    1400         0.35    2275.4381    22170.419   -2068789.1    130670.52   -1938118.6    5437012.7 
    1500        0.375    2276.2152    22223.868   -2068831.8    130715.15   -1938116.7    5431776.4 
    1600          0.4    2275.3935    22361.954   -2068783.9    130667.96   -1938115.9    5426540.2 
    1700        0.425    2275.4396    22017.536   -2068791.8    130670.61   -1938121.2    5421303.9 
    1800         0.45     2276.093    22164.783   -2068821.6    130708.13   -1938113.5    5416067.6 
    1900        0.475    2275.6268    22340.295   -2068790.4    130681.36   -1938109.1    5410831.4 
    2000          0.5    2275.6071    22521.714     -2068786    130680.23   -1938105.7    5405595.1 
    2100        0.525    2275.9892    22164.877   -2068812.1    130702.17     -1938110    5400358.9 
    2200         0.55    2275.8738    22439.535   -2068808.4    130695.54   -1938112.9    5395122.6 
    2300        0.575    2275.6262    22445.857   -2068805.2    130681.32   -1938123.8    5389886.3 
    2400          0.6    2275.2468    22449.091   -2068779.7    130659.54   -1938120.1    5384650.1 
    2500        0.625    2276.0309    22506.299   -2068825.8    130704.56   -1938121.2    5379413.8 
    2600         0.65    2275.6671    22343.309   -2068798.6    130683.67   -1938114.9    5374177.5 
    2700        0.675    2275.5492    22515.741   -2068784.4     130676.9   -1938107.5    5368941.3 
    2800          0.7    2275.5001    22620.982   -2068779.4    130674.09   -1938105.3      5363705 
    2900        0.725    2275.9038    22657.726   -2068811.3    130697.27   -1938114.1    5358468.7 
    3000         0.75    2276.3146    22539.483   -2068828.7    130720.86   -1938107.8    5353232.5 
    3100        0.775    2275.1634    22456.038   -2068761.1    130654.75   -1938106.4    5347996.2 
    3200          0.8    2276.0962    22502.287   -2068814.5    130708.31   -1938106.2    5342759.9 
    3300        0.825    2276.0418    22673.874     -2068806    130705.19   -1938100.8    5337523.7 
    3400         0.85    2275.8148    22404.478   -2068804.7    130692.16   -1938112.5    5332287.4 
    3500        0.875     2275.603    22683.238   -2068791.3    130679.99   -1938111.3    5327051.1 
    3600          0.9     2275.688    22753.306   -2068790.1    130684.88   -1938105.2    5321814.9 
    3700        0.925    2276.3692     22446.76   -2068822.9    130723.99   -1938098.9    5316578.6 
    3800         0.95     2275.454    22885.094   -2068772.9    130671.43   -1938101.4    5311342.4 
    3900        0.975     2275.909     22633.85   -2068813.5    130697.56   -1938115.9    5306106.1 
    4000            1    2275.2938    22491.975   -2068775.8    130662.24   -1938113.5    5300869.8 
    4100        1.025    2276.1832    22650.847   -2068818.1    130713.31   -1938104.8    5295633.6 
    4200         1.05    2275.8081    22723.254   -2068790.2    130691.77   -1938098.5    5290397.3 
    4300        1.075    2275.8864    22810.546   -2068794.6    130696.27   -1938098.4      5285161 
    4400          1.1    2275.8398    22589.128   -2068789.1    130693.59   -1938095.5    5279924.8 
    4500        1.125    2276.1418    22847.722   -2068813.1    130710.93   -1938102.2    5274688.5 
    4600         1.15    2276.3242    22877.367   -2068817.4    130721.41     -1938096    5269452.2 
    4700        1.175    2276.2893    22781.917     -2068811     130719.4   -1938091.6      5264216 
    4800          1.2    2279.2651    22858.446   -2068975.3    130890.29     -1938085    5258979.7 
    4900        1.225    2280.0737    22825.404   -2069015.5    130936.73   -1938078.8    5253743.4 
    5000         1.25     2283.941    22470.143   -2069235.9    131158.81   -1938077.1    5248507.2 
    5100        1.275    2287.3833    22649.222   -2069445.8     131356.5   -1938089.3    5243270.9 
    5200          1.3    2284.1724     23325.76   -2069261.6     131172.1   -1938089.5    5238034.6 
    5300        1.325    2282.6671    23993.332   -2069172.6    131085.66   -1938086.9    5232798.4 
    5400         1.35    2279.6512    24376.448   -2068995.7    130912.47   -1938083.3    5227562.1 
    5500        1.375    2275.9397    25113.329     -2068776    130699.33   -1938076.6    5222325.9 
    5600          1.4    2272.4172    25914.176   -2068575.7    130497.04   -1938078.6    5217089.6 
    5700        1.425    2269.5227    26573.936   -2068411.3    130330.82   -1938080.5    5211853.3 
    5800         1.45    2265.2322     27587.37   -2068182.1    130084.44   -1938097.7    5206617.1 
    5900        1.475    2260.9579    28289.622   -2067942.4    129838.97   -1938103.4    5201380.8 
    6000          1.5    2255.8733    29330.827   -2067652.6    129546.98   -1938105.6    5196144.5 
    6100        1.525    2248.9576    30512.065   -2067253.5    129149.84   -1938103.6    5190908.3 
    6200         1.55    2243.3609     31746.68   -2066921.7    128828.44   -1938093.2      5185672 
    6300        1.575    2235.6276    33366.452   -2066472.4    128384.34   -1938088.1    5180435.7 
    6400          1.6    2228.2287    34709.609   -2066042.1    127959.45   -1938082.6    5175199.5 
    6500        1.625    2219.6972    36256.165   -2065542.8    127469.52   -1938073.2    5169963.2 
    6600         1.65    2211.9459    37833.769   -2065089.2    127024.39   -1938064.8    5164726.9 
    6700        1.675    2203.8383      39126.9     -2064615    126558.79   -1938056.2    5159490.7 
    6800          1.7    2193.8264    40680.508   -2064050.9    125983.85   -1938067.1    5154254.4 
    6900        1.725    2184.4854    42326.896   -2063517.7    125447.43   -1938070.2    5149018.2 
    7000         1.75    2175.0052    43392.374   -2062970.4    124903.01   -1938067.3    5143781.9 
    7100        1.775    2165.0164    44902.925   -2062390.2    124329.39   -1938060.8    5138545.6 
    7200          1.8    2154.1144    46601.895   -2061756.8    123703.32   -1938053.5    5133309.4 
    7300        1.825    2143.7056     47989.63   -2061167.8    123105.58   -1938062.2    5128073.1 
    7400         1.85    2132.6114    49550.723   -2060534.6    122468.48   -1938066.2    5122836.8 
    7500        1.875    2121.6115    51033.752   -2059901.4     121836.8   -1938064.6    5117600.6 
    7600          1.9    2109.8444    52946.132   -2059223.7    121161.05   -1938062.7    5112364.3 
    7700        1.925    2098.8452    54787.454   -2058589.1     120529.4   -1938059.7      5107128 
    7800         1.95     2087.237    56642.943   -2057922.9    119862.79   -1938060.1    5101891.8 
    7900        1.975    2074.6836     58121.79   -2057216.8    119141.89     -1938075    5096655.5 
    8000            2    2062.7016    60130.273   -2056528.5     118453.8   -1938074.7    5091419.2 
    8100        2.025    2050.8243    61884.595   -2055839.6    117771.73   -1938067.9      5086183 
    8200         2.05    2038.1084    64100.707   -2055102.9     117041.5   -1938061.4    5080946.7 
    8300        2.075    2025.5923    65753.621   -2054379.6    116322.74   -1938056.8    5075710.4 
    8400          2.1    2013.9382    68006.151   -2053702.6    115653.49   -1938049.1    5070474.2 
    8500        2.125    2000.9877    69902.904   -2052973.7    114909.79   -1938063.9    5065237.9 
    8600         2.15    1987.2034    72070.568   -2052188.6     114118.2   -1938070.4    5060001.7 
    8700        2.175    1975.2859    74065.168   -2051508.6    113433.82   -1938074.8    5054765.4 
    8800          2.2    1962.2716    76016.387   -2050758.4    112686.46   -1938071.9    5049529.1 
    8900        2.225    1949.2975    78252.468   -2050009.2     111941.4   -1938067.8    5044292.9 
    9000         2.25    1936.1073    79988.603     -2049263    111183.93   -1938079.1    5039056.6 
    9100        2.275    1923.7387     82308.32     -2048554    110473.65   -1938080.3    5033820.3 
    9200          2.3    1910.2797    84530.626   -2047772.7    109700.74   -1938071.9    5028584.1 
    9300        2.325    1898.0948    86446.196   -2047069.3       109001   -1938068.3    5023347.8 
    9400         2.35    1884.9158      88776.9     -2046316    108244.18   -1938071.8    5018111.5 
    9500        2.375    1871.6287    91095.766   -2045566.5    107481.15   -1938085.4    5012875.3 
    9600          2.4    1858.7038    93064.226   -2044821.5    106738.92   -1938082.6      5007639 
    9700        2.425    1845.9815    95436.748   -2044090.4    106008.32     -1938082    5002402.7 
    9800         2.45    1833.1929    97686.162   -2043351.1    105273.91   -1938077.2    4997166.5 
    9900        2.475    1820.1921    99612.753   -2042601.4    104527.32   -1938074.1    4991930.2 
   10000          2.5    1807.8278    101943.09     -2041903    103817.29   -1938085.7    4986693.9 
   10100        2.525    1794.1213    103843.08   -2041120.6    103030.17   -1938090.5    4981457.7 
   10200         2.55    1781.6791    106156.07     -2040410    102315.66   -1938094.3    4976221.4 
   10300        2.575    1769.1997    108276.06   -2039684.1    101599.01   -1938085.1    4970985.2 
   10400          2.6      1757.32    110288.26   -2038996.7    100916.79   -1938079.9    4965748.9 
   10500        2.625    1747.2765    112223.93   -2038416.3    100340.03   -1938076.3    4960512.6 
   10600         2.65    1737.7824    113256.39   -2037882.1     99794.82   -1938087.3    4955276.4 
   10700        2.675    1729.3941    114503.52   -2037400.3    99313.107   -1938087.2    4950040.1 
   10800          2.7    1719.3508    115782.45   -2036826.9    98736.357   -1938090.6    4944803.8 
   10900        2.725      1709.41    117198.75   -2036261.4    98165.491     -1938096    4939567.6 
   11000         2.75    1700.8603    118303.06   -2035777.6    97674.513   -1938103.1    4934331.3 
   11100        2.775    1692.1755    119798.65   -2035292.6    97175.773   -1938116.8      4929095 
   11200          2.8    1685.4112    121240.47   -2034899.4    96787.324   -1938112.1    4923858.8 
   11300        2.825    1679.1173    122852.98   -2034529.6    96425.885   -1938103.8    4918622.5 
   11400         2.85    1673.4539    124098.08   -2034197.4    96100.659   -1938096.7    4913386.2 
   11500        2.875    1668.5334    125240.81   -2033909.3    95818.088   -1938091.2      4908150 
   11600          2.9    1663.2775    126714.78   -2033615.1     95516.26   -1938098.8    4902913.7 
   11700        2.925    1659.5069    128121.15   -2033399.1    95299.732   -1938099.4    4897677.4 
   11800         2.95    1655.8823    129371.99   -2033196.9    95091.582   -1938105.3    4892441.2 
   11900        2.975      1652.23    130366.65   -2032988.3    94881.844   -1938106.5    4887204.9 
   12000            3    1649.2148     131657.2   -2032809.2     94708.69   -1938100.5    4881968.7 
   12100        3.025    1645.5406    132770.69   -2032602.9    94497.693   -1938105.2    4876732.4 
   12200         3.05    1642.2011    134295.06   -2032410.4    94305.919   -1938104.5    4871496.1 
   12300        3.075    1639.5498    135453.36   -2032260.6    94153.662   -1938106.9    4866259.9 
   12400          3.1    1635.6688    137146.08   -2032039.7     93930.79   -1938108.9    4861023.6 
   12500        3.125    1632.9621    138046.57   -2031882.4    93775.353     -1938107    4855787.3 
   12600         3.15    1629.1073    139094.03     -2031655    93553.984   -1938101.1    4850551.1 
   12700        3.175    1625.1561    140077.67   -2031440.7     93327.08   -1938113.6    4845314.8 
   12800          3.2     1620.488    141179.63     -2031171    93059.008     -1938112    4840078.5 
   12900        3.225    1615.8921    142481.47   -2030908.1     92795.08     -1938113    4834842.3 
   13000         3.25    1609.5488    143455.06   -2030546.6    92430.807   -1938115.7      4829606 
   13100        3.275    1603.7977    144713.67   -2030223.1    92100.541   -1938122.5    4824369.7 
   13200          3.3    1596.3633    145871.75   -2029811.6    91673.612     -1938138    4819133.5 
   13300        3.325     1589.457    147251.46   -2029408.6    91277.005   -1938131.6    4813897.2 
   13400         3.35    1581.6567    148616.34   -2028958.8    90829.061   -1938129.7    4808660.9 
   13500        3.375    1574.0145    149909.32   -2028515.1    90390.199   -1938124.9    4803424.7 
   13600          3.4    1564.9325    151075.84   -2027992.1    89868.652   -1938123.5    4798188.4 
   13700        3.425    1555.3366    152133.85   -2027439.5    89317.587     -1938122    4792952.2 
   13800         3.45    1546.2007    153470.07   -2026926.3    88792.946   -1938133.4    4787715.9 
   13900        3.475    1536.6436    154997.18   -2026377.9    88244.117   -1938133.7    4782479.6 
   14000          3.5     1526.405    156951.77   -2025787.7    87656.147   -1938131.6    4777243.4 
   14100        3.525    1515.9382    158212.55   -2025181.1    87055.077     -1938126    4772007.1 
   14200         3.55    1504.6972    159922.29   -2024546.3    86409.543   -1938136.8    4766770.8 
   14300        3.575    1494.0989    161404.31   -2023932.5     85800.92   -1938131.6    4761534.6 
   14400          3.6     1481.648    163399.33   -2023212.6     85085.91   -1938126.7    4756298.3 
   14500        3.625    1470.0194    165067.75     -2022542    84418.118   -1938123.9      4751062 
   14600         3.65    1457.2234    167297.62   -2021805.7    83683.289   -1938122.5    4745825.8 
   14700        3.675    1445.2139    169667.02   -2021133.8    82993.626   -1938140.2    4740589.5 
   14800          3.7     1431.162    172091.54   -2020333.4    82186.675   -1938146.7    4735353.2 
   14900        3.725    1418.6982    174517.14   -2019620.9    81470.923   -1938149.9      4730117 
   15000         3.75    1405.2509    176859.32     -2018840    80698.688   -1938141.3    4724880.7 
   15100        3.775    1391.6185    179589.94   -2018049.6    79915.825   -1938133.8    4719644.5 
   15200          3.8    1377.3557    182233.52   -2017236.3    79096.761   -1938139.5    4714408.2 
   15300        3.825    1363.7128    184586.52   -2016453.7    78313.301   -1938140.4    4709171.9 
   15400         3.85    1350.0155    186981.02   -2015670.9    77526.714   -1938144.2    4703935.7 
   15500        3.875    1334.9949    189852.29   -2014808.6     76664.13   -1938144.4    4698699.4 
   15600          3.9    1321.8755    192538.18     -2014056    75910.725   -1938145.3    4693463.1 
   15700        3.925    1307.8881    195009.47   -2013265.7    75107.481   -1938158.2    4688226.9 
   15800         3.95    1292.8849    197658.59   -2012401.1    74245.901   -1938155.2    4682990.6 
   15900        3.975    1278.6881    200141.31   -2011583.9    73430.623   -1938153.3    4677754.3 
   16000            4    1263.9858     203125.4   -2010736.1    72586.324   -1938149.8    4672518.1 
   16100        4.025    1249.4951    205442.84   -2009905.8    71754.173   -1938151.6    4667281.8 
   16200         4.05    1234.1429    208302.82   -2009035.7    70872.548   -1938163.1    4662045.5 
   16300        4.075    1219.9904    211259.95   -2008217.8    70059.822     -1938158    4656809.3 
   16400          4.1    1204.7034    214383.06   -2007341.3    69181.938   -1938159.3      4651573 
   16500        4.125    1188.9496     218040.1   -2006440.3    68277.254   -1938163.1    4646336.7 
   16600         4.15    1173.4861     220885.1   -2005550.7    67389.242   -1938161.5    4641100.5 
   16700        4.175     1158.653    224397.76   -2004706.8    66537.423   -1938169.4    4635864.2 
   16800          4.2      1143.76    228004.38     -2003848    65682.174   -1938165.8      4630628 
   16900        4.225    1129.3672    231617.76   -2003020.7    64855.642     -1938165    4625391.7 
   17000         4.25    1114.5042    234703.72   -2002164.1    64002.115     -1938162    4620155.4 
   17100        4.275    1100.9315    237796.87   -2001379.8    63222.678   -1938157.1    4614919.2 
   17200          4.3    1087.8049    241207.73   -2000636.4    62468.864   -1938167.6    4609682.9 
   17300        4.325    1074.4951    244629.32   -1999871.4    61704.527   -1938166.8    4604446.6 
   17400         4.35    1061.5306    247986.55   -1999129.8    60960.025   -1938169.8    4599210.4 
   17500        4.375    1048.7922    251239.44   -1998394.6    60228.502   -1938166.1    4593974.1 
   17600          4.4     1035.985    254480.25   -1997649.3    59493.025   -1938156.3    4588737.8 
   17700        4.425    1023.5996    257582.45     -1996940    58781.775   -1938158.3    4583501.6 
   17800         4.45    1011.7305    260968.83   -1996260.8    58100.175   -1938160.6    4578265.3 
   17900        4.475    998.52159    263934.32   -1995511.8    57341.634   -1938170.2      4573029 
   18000          4.5    987.11658    266811.93     -1994861    56686.684   -1938174.4    4567792.8 
   18100        4.525    975.83901    269996.94   -1994217.9    56039.052   -1938178.9    4562556.5 
   18200         4.55    963.24295    273191.78   -1993509.2    55315.704   -1938193.5    4557320.2 
   18300        4.575     952.3097    275915.11   -1992877.5    54687.845   -1938189.6      4552084 
   18400          4.6    941.16487    278573.03   -1992235.6    54047.837   -1938187.7    4546847.7 
   18500        4.625    930.16745    281500.28     -1991603    53416.292   -1938186.7    4541611.5 
   18600         4.65    921.41618     283934.2   -1991095.9    52913.737   -1938182.2    4536375.2 
   18700        4.675    910.10069    286979.07   -1990460.4    52263.928   -1938196.5    4531138.9 
   18800          4.7    899.62756     289963.6   -1989864.9    51662.493   -1938202.4    4525902.7 
   18900        4.725    890.82471     292757.6   -1989361.8    51156.975   -1938204.9    4520666.4 
   19000         4.75    881.42156    296031.37   -1988823.7    50616.985   -1938206.8    4515430.1 
   19100        4.775    873.29476    298695.39   -1988357.6    50150.291   -1938207.3    4510193.9 
   19200          4.8    863.66363    301191.31   -1987817.1    49597.209   -1938219.9    4504957.6 
   19300        4.825    854.83317    303790.02     -1987306    49090.106   -1938215.9    4499721.3 
   19400         4.85    845.82924    306127.22   -1986784.3    48573.041   -1938211.2    4494485.1 
   19500        4.875    836.18426    308337.41   -1986223.3    48019.164   -1938204.1    4489248.8 
   19600          4.9    827.29451    310716.09   -1985708.8    47508.656   -1938200.1    4484012.5 
   19700        4.925    818.45876    313159.11   -1985213.7     47001.25   -1938212.4    4478776.3 
   19800         4.95    807.49857    315173.75   -1984589.1    46371.844   -1938217.2      4473540 
   19900        4.975    798.41745    317611.77   -1984064.1    45850.347   -1938213.7    4468303.7 
   20000            5    787.12143    319868.69   -1983411.5    45201.655   -1938209.8    4463067.5 
   20100        5.025     777.0352    321868.97   -1982831.2    44622.438   -1938208.8    4457831.2 
   20200         5.05     765.8381    324418.43     -1982183    43979.427   -1938203.6      4452595 
   20300        5.075    756.14277     326827.3   -1981619.3    43422.658   -1938196.6    4447358.7 
   20400          5.1    743.05192    329348.17   -1980879.2    42670.896   -1938208.3    4442122.4 
   20500        5.125    731.33527    331527.59   -1980206.9     41998.05   -1938208.8    4436886.2 
   20600         5.15    720.09728    334155.82   -1979561.6    41352.691   -1938208.9    4431649.9 
   20700        5.175    707.39485    336468.64   -1978828.7    40623.234   -1938205.5    4426413.6 
   20800          5.2    694.94621    339052.42     -1978110    39908.352   -1938201.6    4421177.4 
   20900        5.225    682.49758    341792.97   -1977405.5     39193.47   -1938212.1    4415941.1 
   21000         5.25    668.89544    343979.35   -1976629.6    38412.347   -1938217.2    4410704.8 
   21100        5.275    657.35132    346673.94   -1975970.3    37749.408   -1938220.9    4405468.6 
   21200          5.3    644.28838     349194.7   -1975219.8    36999.248   -1938220.5    4400232.3 
   21300        5.325    632.11309    351749.72   -1974521.7    36300.064   -1938221.7      4394996 
   21400         5.35     619.8127    354428.58   -1973819.2    35593.695   -1938225.5    4389759.8 
   21500        5.375    607.38132    356718.92     -1973113    34879.804   -1938233.2    4384523.5 
   21600          5.4    595.92185    359283.44     -1972441    34221.726   -1938219.3    4379287.3 
   21700        5.425    584.92846    361847.35   -1971798.5    33590.414   -1938208.1      4374051 
   21800         5.45    574.08059    364000.93   -1971165.5    32967.458     -1938198    4368814.7 
   21900        5.475    563.74745    365954.51   -1970554.3    32374.062   -1938180.3    4363578.5 
   22000          5.5     554.1226    368278.66   -1969968.9     31821.34   -1938147.5    4358342.2 
   22100        5.525    545.38205    370201.29   -1969391.9    31319.401   -1938072.5    4353105.9 
   22200         5.55    537.37266    372508.61   -1968815.2    30859.449   -1937955.8    4347869.7 
   22300        5.575    529.71677    374810.79   -1968190.5    30419.798   -1937770.7    4342633.4 
   22400          5.6    524.25119    376744.06   -1967580.3    30105.929   -1937474.4    4337397.1 
   22500        5.625    522.11077     378852.5   -1967039.5    29983.012   -1937056.5    4332160.9 
   22600         5.65    519.39935     381108.9   -1966342.5    29827.304   -1936515.2    4326924.6 
   22700        5.675    519.31536    383167.14   -1965723.2    29822.481   -1935900.7    4321688.3 
   22800          5.7    520.40598    385404.94   -1965140.2    29885.112   -1935255.1    4316452.1 
   22900        5.725    520.73849    387542.39   -1964492.1    29904.207   -1934587.9    4311215.8 
   23000         5.75    522.29298    389781.78   -1963929.8    29993.476   -1933936.3    4305979.5 
   23100        5.775    524.03201    391968.99   -1963335.6    30093.342   -1933242.3    4300743.3 
   23200          5.8    525.90271    394112.44   -1962683.8     30200.77     -1932483      4295507 
   23300        5.825    527.16712    396548.24   -1961925.3    30273.381   -1931651.9    4290270.8 
   23400         5.85    529.19891    398994.07   -1961146.4    30390.059   -1930756.4    4285034.5 
   23500        5.875    530.91346    401501.26   -1960291.8     30488.52   -1929803.3    4279798.2 
   23600          5.9    530.67954    403955.67   -1959261.7    30475.086   -1928786.6      4274562 
   23700        5.925      531.043    406485.11   -1958165.6    30495.959   -1927669.7    4269325.7 
   23800         5.95    532.46633    409397.24   -1957035.6    30577.696   -1926457.9    4264089.4 
   23900        5.975    531.68678    412001.42   -1955651.1    30532.929   -1925118.2    4258853.2 
   24000            6     531.2346     414679.2   -1954124.1    30506.962   -1923617.2    4253616.9 
   24100        6.025    531.24081    417855.32   -1952436.7    30507.318   -1921929.4    4248380.6 
   24200         6.05    533.24888    421296.71   -1950576.4    30622.635   -1919953.7    4243144.4 
   24300        6.075    537.04213    425140.46   -1948497.5    30840.468     -1917657    4237908.1 
   24400          6.1    543.00062    429096.89   -1946268.8    31182.643   -1915086.2    4232671.8 
   24500        6.125     550.6006    433227.94   -1943919.2    31619.084   -1912300.1    4227435.6 
   24600         6.15    560.15751    437596.99   -1941528.8    32167.904   -1909360.9    4222199.3 
   24700        6.175    570.88742       441792   -1939105.9    32784.086   -1906321.8      4216963 
   24800          6.2    583.03775     446492.4   -1936640.2    33481.837   -1903158.4    4211726.8 
   24900        6.225    596.70948    451112.19   -1934142.3    34266.957   -1899875.3    4206490.5 
   25000         6.25    613.61785    455960.25     -1931723    35237.946     -1896485    4201254.3 
   25100        6.275    632.03644    461025.47   -1929276.8    36295.662   -1892981.2      4196018 
   25200          6.3    650.17441    465537.55   -1926816.2    37337.263   -1889478.9    4190781.7 
   25300        6.325    668.58593     470576.6   -1924371.8    38394.573   -1885977.2    4185545.5 
   25400         6.35    686.17367    475543.31     -1921816    39404.576   -1882411.4    4180309.2 
   25500        6.375    704.72155    480095.34   -1919315.6    40469.716   -1878845.9    4175072.9 
   25600          6.4    722.71825     485181.2   -1916741.4    41503.204   -1875238.2    4169836.7 
   25700        6.425    741.69673    490627.19   -1914162.7    42593.072   -1871569.6    4164600.4 
   25800         6.45      760.609    495781.61   -1911619.8    43679.139   -1867940.6    4159364.1 
   25900        6.475    778.43002    500811.93   -1908983.2    44702.538   -1864280.6    4154127.9 
   26000          6.5    798.33477    505935.85   -1906433.2    45845.599   -1860587.6    4148891.6 
   26100        6.525    818.68178     510776.3   -1903899.6    47014.057   -1856885.5    4143655.3 
   26200         6.55     840.0748    515646.16   -1901386.2    48242.584   -1853143.6    4138419.1 
   26300        6.575    864.77367    520790.52   -1899035.2    49660.955   -1849374.2    4133182.8 
   26400          6.6    890.77988    525813.33   -1896737.6    51154.401   -1845583.2    4127946.5 
   26500        6.625    918.39597    530750.95   -1894505.4    52740.297   -1841765.1    4122710.3 
   26600         6.65    946.98747    535939.97   -1892331.2    54382.208     -1837949      4117474 
   26700        6.675    978.35395    540760.49   -1890283.5    56183.476   -1834100.1    4112237.8 
   26800          6.7    1010.7902    545729.45   -1888253.6     58046.18   -1830207.4    4107001.5 
   26900        6.725    1041.8983       550797   -1886156.9    59832.611   -1826324.3    4101765.2 
   27000         6.75    1074.7351    555993.39   -1884125.1    61718.309   -1822406.8      4096529 
   27100        6.775     1108.002    561992.58     -1882077    63628.713   -1818448.3    4091292.7 
   27200          6.8    1141.1767    568873.74   -1880041.8     65533.82     -1814508    4086056.4 
   27300        6.825    1174.6246    577214.92   -1878000.5    67454.617   -1810545.9    4080820.2 
   27400         6.85    1209.0026    587477.08   -1876039.2    69428.827   -1806610.4    4075583.9 
   27500        6.875    1243.6856    598420.38   -1874104.7    71420.555   -1802684.1    4070347.6 
   27600          6.9     1278.473    608142.88   -1872190.6     73418.27   -1798772.3    4065111.4 
   27700        6.925    1316.3873    614725.54   -1870509.8    75595.562   -1794914.3    4059875.1 
   27800         6.95    1354.5766    620033.37   -1868888.6    77788.639   -1791099.9    4054638.8 
   27900        6.975    1395.7013     624332.9   -1867440.5     80150.29   -1787290.2    4049402.6 
   28000            7    1439.1202    628644.73   -1866181.8    82643.687   -1783538.2    4044166.3 
   28100        7.025    1483.0528     632616.7   -1864956.5    85166.581   -1779789.9      4038930 
   28200         7.05     1528.301    636565.23   -1863889.4    87765.028   -1776124.4    4033693.8 
   28300        7.075    1574.7666    640101.25   -1862953.6    90433.389   -1772520.2    4028457.5 
   28400          7.1    1621.8949    644548.95   -1862060.1    93139.802   -1768920.3    4023221.3 
   28500        7.125    1668.7251    648496.08   -1861179.8    95829.097   -1765350.7      4017985 
   28600         7.15    1715.1424    652269.34   -1860305.1    98494.684   -1761810.4    4012748.7 
   28700        7.175    1758.8015    656275.28   -1859335.9    101001.87   -1758334.1    4007512.5 
   28800          7.2    1797.1373    660713.81     -1858111    103203.37   -1754907.7    4002276.2 
   28900        7.225    1829.3626    664515.28   -1856550.7    105053.96   -1751496.8    3997039.9 
   29000         7.25    1859.8818    670061.74   -1854900.7    106806.57   -1748094.1    3991803.7 
   29100        7.275    1886.5913    675767.17   -1853058.5     108340.4   -1744718.1    3986567.4 
   29200          7.3    1911.1875    681452.89   -1851124.5    109752.87   -1741371.6    3981331.1 
   29300        7.325    1934.7725    687509.22   -1849146.8    111107.28   -1738039.5    3976094.9 
   29400         7.35    1957.4273    693775.62   -1847129.8    112408.27   -1734721.5    3970858.6 
   29500        7.375    1975.4236    700765.13   -1844910.9    113441.73   -1731469.2    3965622.3 
   29600          7.4    1993.7056    707531.71   -1842739.6     114491.6     -1728248    3960386.1 
   29700        7.425    2010.6081    714288.66   -1840507.7    115462.25   -1725045.4    3955149.8 
   29800         7.45    2027.3014    720850.83   -1838308.3     116420.9   -1721887.4    3949913.6 
   29900        7.475    2041.9235    727538.06   -1836090.2    117260.59   -1718829.6    3944677.3 
   30000          7.5    2053.6807    735616.03   -1833723.8    117935.77     -1715788      3939441 
   30100        7.525    2064.7349    741895.47   -1831341.4    118570.57   -1712770.8    3934204.8 
   30200         7.55    2072.2162     748564.3     -1828818     119000.2   -1709817.8    3928968.5 
   30300        7.575    2080.5582    755569.47   -1826364.2    119479.24   -1706884.9    3923732.2 
   30400          7.6    2087.4814    762220.76   -1823870.9    119876.82   -1703994.1      3918496 
   30500        7.625    2089.7256    768788.17   -1821189.5     120005.7   -1701183.8    3913259.7 
   30600         7.65     2092.985    776286.21   -1818643.8    120192.87     -1698451    3908023.4 
   30700        7.675    2091.3214    781872.39   -1815902.2    120097.34   -1695804.9    3902787.2 
   30800          7.7    2088.8962    788886.61   -1813252.6    119958.07   -1693294.5    3897550.9 
   30900        7.725    2086.0157    795166.03   -1810652.4    119792.65   -1690859.8    3892314.6 
   31000         7.75    2091.5612    799507.86   -1808580.2    120111.11   -1688469.1    3887078.4 
   31100        7.775    2093.0037    804106.33   -1806380.1    120193.95   -1686186.2    3881842.1 
   31200          7.8    2090.1541    808986.39     -1803943     120030.3   -1683912.7    3876605.8 
   31300        7.825    2090.0612     813131.9   -1801664.5    120024.97   -1681639.5    3871369.6 
   31400         7.85     2089.574    818423.23   -1799481.6    119996.99   -1679484.7    3866133.3 
   31500        7.875    2084.7276    823761.99   -1797134.1    119718.68   -1677415.4    3860897.1 
   31600          7.9    2082.7929    827839.19   -1794975.4    119607.58   -1675367.8    3855660.8 
   31700        7.925    2069.6959       832325   -1792245.2    118855.46   -1673389.7    3850424.5 
   31800         7.95    2060.3012    837639.76   -1789760.3    118315.96   -1671444.3    3845188.3 
   31900        7.975    2053.6832    843437.47   -1787488.9    117935.91     -1669553      3839952 
   32000            8    2038.9224    849545.91   -1784777.7    117088.25   -1667689.5    3834715.7 
   32100        8.025    2036.4654    854280.63   -1782756.4    116947.15   -1665809.2    3829479.5 
   32200         8.05     2028.357    858800.59   -1780434.5    116481.51     -1663953    3824243.2 
   32300        8.075    2021.3423    862615.49   -1778227.2    116078.68   -1662148.5    3819006.9 
   32400          8.1    2019.7993    868149.68   -1776317.5    115990.07   -1660327.4    3813770.7 
   32500        8.125     2016.332     872427.3     -1774270    115790.96     -1658479    3808534.4 
   32600         8.15    2015.1804    875769.69   -1772317.2    115724.83   -1656592.4    3803298.1 
   32700        8.175    2015.0908    878669.41   -1770306.3    115719.68   -1654586.6    3798061.9 
   32800          8.2    2023.3973    882913.82   -1768631.2    116196.69   -1652434.5    3792825.6 
   32900        8.225    2028.3158    886574.39   -1766548.3    116479.15   -1650069.2    3787589.3 
   33000         8.25    2043.0424    890181.64   -1764796.2    117324.85   -1647471.4    3782353.1 
   33100        8.275    2053.3862    895102.91   -1762680.8    117918.85   -1644761.9    3777116.8 
   33200          8.3    2066.6881     898038.3   -1760680.9    118682.73   -1641998.1    3771880.6 
   33300        8.325     2077.694    901268.93   -1758477.2    119314.77   -1639162.4    3766644.3 
   33400         8.35    2091.4461     905928.7   -1756388.7     120104.5   -1636284.2      3761408 
   33500        8.375    2102.0238    910833.81   -1754015.7    120711.94   -1633303.7    3756171.8 
   33600          8.4     2115.164    914546.65   -1751678.2    121466.54   -1630211.7    3750935.5 
   33700        8.425    2127.3541    919674.89     -1749157    122166.57   -1626990.4    3745699.2 
   33800         8.45    2141.5565     925122.4   -1746683.8    122982.17   -1623701.6      3740463 
   33900        8.475    2155.9106    932351.96     -1744197    123806.47   -1620390.6    3735226.7 
   34000          8.5    2166.3837    939358.53   -1741462.3    124407.91   -1617054.3    3729990.4 
   34100        8.525    2179.3233    945749.43   -1738816.9    125150.98   -1613665.9    3724754.2 
   34200         8.55    2192.4956     952138.2   -1736137.9    125907.42   -1610230.4    3719517.9 
   34300        8.575    2206.8018    959005.08   -1733445.2    126728.98   -1606716.2    3714281.6 
   34400          8.6    2221.4709    965126.77   -1730751.5    127571.38   -1603180.1    3709045.4 
   34500        8.625    2238.3525    970631.87   -1728156.1    128540.83   -1599615.3    3703809.1 
   34600         8.65    2261.3949    976523.94   -1725876.6    129864.07   -1596012.5    3698572.8 
   34700        8.675    2285.0263    982130.96   -1723605.8    131221.14   -1592384.6    3693336.6 
   34800          8.7    2302.9315    987149.33   -1721002.3    132249.37   -1588752.9    3688100.3 
   34900        8.725    2321.0056    992765.25     -1718367     133287.3   -1585079.7    3682864.1 
   35000         8.75    2330.9843    997939.91   -1715218.8    133860.35   -1581358.4    3677627.8 
   35100        8.775    2348.2955    1002183.7   -1712473.2    134854.47   -1577618.7    3672391.5 
   35200          8.8     2357.244    1006407.4   -1709254.7    135368.35   -1573886.4    3667155.3 
   35300        8.825    2361.4192    1010986.1   -1705653.4    135608.12   -1570045.2      3661919 
   35400         8.85    2370.0746    1016569.5   -1702332.7    136105.17   -1566227.5    3656682.7 
   35500        8.875    2370.1166    1023050.8   -1698538.5    136107.58   -1562430.9    3651446.5 
   35600          8.9     2366.951    1027831.2   -1694556.1    135925.79   -1558630.3    3646210.2 
   35700        8.925    2368.3036    1034449.9   -1690824.7    136003.47   -1554821.2    3640973.9 
   35800         8.95    2365.8451    1041742.5   -1686889.4    135862.28   -1551027.2    3635737.7 
   35900        8.975    2366.8353    1050154.2     -1683192    135919.15   -1547272.9    3630501.4 
   36000            9     2361.304    1058849.4   -1679200.6    135601.51     -1543599    3625265.1 
   36100        9.025    2357.7146    1066106.2   -1675386.1    135395.38   -1539990.7    3620028.9 
   36200         9.05    2346.3217    1075115.7   -1671211.1    134741.12     -1536470    3614792.6 
   36300        9.075     2340.895    1083641.8   -1667424.3    134429.49   -1532994.9    3609556.3 
   36400          9.1    2325.7273    1093125.5   -1663174.9    133558.46   -1529616.4    3604320.1 
   36500        9.125    2312.1015    1102231.9   -1659115.2    132775.97   -1526339.2    3599083.8 
   36600         9.15    2291.6876    1112905.8     -1654721    131603.67   -1523117.3    3593847.6 
   36700        9.175    2276.4911    1122888.1   -1650682.8       130731   -1519951.8    3588611.3 
   36800          9.2     2247.866    1133330.7   -1645954.3    129087.15   -1516867.1      3583375 
   36900        9.225    2227.9226    1143843.8   -1641725.1    127941.87   -1513783.3    3578138.8 
   37000         9.25    2205.5993    1154609.4     -1637342    126659.92   -1510682.1    3572902.5 
   37100        9.275     2181.201    1165685.5     -1632878    125258.81   -1507619.2    3567666.2 
   37200          9.3    2156.5545    1177056.4     -1628345    123843.45   -1504501.5      3562430 
   37300        9.325    2136.8849    1186917.3   -1624062.3    122713.89   -1501348.4    3557193.7 
   37400         9.35    2116.7726      1196225   -1619697.9    121558.91     -1498139    3551957.4 
   37500        9.375    2100.2672    1203693.6   -1615498.3    120611.07   -1494887.2    3546721.2 
   37600          9.4    2081.5284    1211538.4   -1611123.2    119534.96   -1491588.2    3541484.9 
   37700        9.425    2071.8392    1219692.8   -1607144.9    118978.55   -1488166.4    3536248.6 
   37800         9.45     2061.843    1228264.3   -1603126.7    118404.49   -1484722.2    3531012.4 
   37900        9.475    2060.6753    1237284.5     -1599562    118337.44   -1481224.6    3525776.1 
   38000          9.5    2061.2172    1245834.1   -1596096.2    118368.56   -1477727.7    3520539.9 
   38100        9.525    2064.1937    1255296.1   -1592849.7    118539.49   -1474310.2    3515303.6 
   38200         9.55    2062.6865    1262614.9   -1589396.4    118452.94   -1470943.5    3510067.3 
   38300        9.575    2064.1232    1271079.9   -1586111.8    118535.44   -1467576.3    3504831.1 
   38400          9.6    2059.0081      1279831   -1582476.5     118241.7   -1464234.8    3499594.8 
   38500        9.625    2058.8824    1287030.3     -1579093    118234.48   -1460858.5    3494358.5 
   38600         9.65    2054.9868    1294328.2   -1575471.8    118010.77     -1457461    3489122.3 
   38700        9.675    2052.2583    1299915.4   -1571942.5    117854.08   -1454088.4      3483886 
   38800          9.7    2043.2075    1305251.5   -1568123.6    117334.32   -1450789.3    3478649.7 
   38900        9.725    2035.7924    1311937.8   -1564394.1     116908.5   -1447485.6    3473413.5 
   39000         9.75    2021.5527    1317219.8   -1560302.6    116090.77   -1444211.8    3468177.2 
   39100        9.775    2008.9923    1323032.7   -1556288.1    115369.46   -1440918.6    3462940.9 
   39200          9.8    1995.0847    1330084.8   -1552201.8     114570.8     -1437631    3457704.7 
   39300        9.825    1976.6773    1336924.6   -1547846.9    113513.73   -1434333.1    3452468.4 
   39400         9.85    1956.2189    1343785.6     -1543426    112338.87   -1431087.1    3447232.1 
   39500        9.875    1929.9877    1353006.5   -1538704.5     110832.5     -1427872    3441995.9 
   39600          9.9    1906.6967    1359502.1   -1534144.5    109494.98   -1424649.5    3436759.6 
   39700        9.925    1877.5776    1369489.7   -1529281.7    107822.77   -1421458.9    3431523.4 
   39800         9.95    1846.3181    1379534.4   -1524244.5    106027.65   -1418216.8    3426287.1 
   39900        9.975    1814.9885    1390119.2   -1519187.7     104228.5   -1414959.2    3421050.8 
   40000           10    1782.9235    1401930.5     -1514057    102387.12   -1411669.8    3415814.6 
   40100       10.025    1749.0167    1414137.3   -1508810.2    100439.97   -1408370.2    3410578.3 
   40200        10.05    1716.2833    1428260.6   -1503601.6    98560.201   -1405041.4      3405342 
   40300       10.075    1679.1915    1440770.5     -1498139     96430.15   -1401708.9    3400105.8 
   40400         10.1    1644.6142      1453206     -1492752    94444.494   -1398307.5    3394869.5 
   40500       10.125    1614.5426    1462025.5   -1487585.4    92717.586   -1394867.8    3389633.2 
   40600        10.15    1584.9691    1473438.9   -1482397.3    91019.281     -1391378      3384397 
   40700       10.175    1556.0106    1484359.1   -1477205.1    89356.295   -1387848.8    3379160.7 
   40800         10.2    1534.1178    1495155.1   -1472404.4    88099.069   -1384305.4    3373924.4 
   40900       10.225    1513.7241    1506497.1   -1467667.6     86927.93   -1380739.7    3368688.2 
   41000        10.25    1497.1104    1517426.3   -1463079.1     85973.86   -1377105.2    3363451.9 
   41100       10.275    1485.6818    1529591.9   -1458698.7    85317.557   -1373381.1    3358215.6 
   41200         10.3    1474.1341    1540114.6   -1454273.6    84654.413   -1369619.2    3352979.4 
   41300       10.325    1472.5945    1549698.1   -1450365.2    84565.995   -1365799.2    3347743.1 
   41400        10.35    1463.8064    1560295.6   -1446024.9     84061.33   -1361963.6    3342506.9 
   41500       10.375    1462.4871    1571774.9   -1442030.8    83985.567   -1358045.3    3337270.6 
   41600         10.4    1459.2214    1581212.2   -1437867.3    83798.025   -1354069.3    3332034.3 
   41700       10.425    1457.7059      1592356   -1433781.8    83710.998   -1350070.8    3326798.1 
   41800        10.45    1451.7168    1604093.9   -1429406.9    83367.066   -1346039.9    3321561.8 
   41900       10.475    1449.3678      1615723   -1425189.9    83232.168   -1341957.8    3316325.5 
   42000         10.5    1446.4888      1626898   -1420970.4    83066.841   -1337903.5    3311089.3 
   42100       10.525    1437.8384    1637472.5   -1416343.6    82570.077   -1333773.5      3305853 
   42200        10.55    1431.0165      1649461   -1411811.2    82178.319   -1329632.8    3300616.7 
   42300       10.575    1417.2046    1659822.3   -1406880.7    81385.147   -1325495.5    3295380.5 
   42400         10.6    1410.9317    1670844.1   -1402299.1    81024.917   -1321274.2    3290144.2 
   42500       10.625    1401.2646    1681462.4   -1397324.4    80469.768   -1316854.6    3284907.9 
   42600        10.65    1394.2826    1692295.9   -1392298.8    80068.814   -1312229.9    3279671.7 
   42700       10.675    1387.2548    1701662.2   -1387011.2    79665.233   -1307345.9    3274435.4 
   42800         10.7    1386.0432    1711921.7   -1381792.7    79595.656   -1302197.1    3269199.1 
   42900       10.725    1381.4305    1723651.2   -1376259.8    79330.766   -1296929.1    3263962.9 
   43000        10.75    1378.4861    1736604.2   -1370817.6    79161.677   -1291655.9    3258726.6 
   43100       10.775    1370.2303    1747049.6   -1365087.8    78687.575   -1286400.3    3253490.4 
   43200         10.8    1362.8141    1759093.1   -1359390.2     78261.69   -1281128.5    3248254.1 
   43300       10.825    1354.5245      1770257   -1353465.6    77785.646   -1275679.9    3243017.8 
   43400        10.85     1348.709    1781346.2   -1347389.9    77451.684   -1269938.2    3237781.6 
   43500       10.875    1347.7329    1791601.9     -1341344    77395.629   -1263948.4    3232545.3 
   43600         10.9    1347.2597    1802729.2   -1335146.5    77368.457   -1257778.1      3227309 
   43700       10.925     1346.912    1814661.4   -1328734.8     77348.49   -1251386.4    3222072.8 
   43800        10.95    1349.5873    1826692.3     -1322260    77502.118   -1244757.9    3216836.5 
   43900       10.975    1353.7934      1836072   -1315502.8    77743.664   -1237759.1    3211600.2 
   44000           11    1364.1191    1848290.7   -1308786.3    78336.629   -1230449.7      3206364 
   44100       11.025    1377.2754    1860575.4   -1301916.3     79092.15   -1222824.2    3201127.7 
   44200        11.05     1395.339    1872225.3   -1295010.8     80129.48   -1214881.3    3195891.4 
   44300       11.075    1417.2134    1883569.2   -1288078.9    81385.655   -1206693.2    3190655.2 
   44400         11.1    1437.0986    1896509.9   -1280745.4    82527.593   -1198217.8    3185418.9 
   44500       11.125    1470.5413    1909260.3   -1273825.7    84448.093   -1189377.6    3180182.6 
   44600        11.15    1500.7147    1922277.1   -1266603.7    86180.842   -1180422.8    3174946.4 
   44700       11.175    1538.9871      1935470   -1259657.2    88378.696   -1171278.5    3169710.1 
   44800         11.2    1577.2212    1949730.3   -1252393.9    90574.347   -1161819.6    3164473.9 
   44900       11.225    1620.7451    1963975.4   -1245208.6    93073.775   -1152134.8    3159237.6 
   45000        11.25    1667.8131    1978236.1   -1238098.8    95776.723     -1142322    3154001.3 
   45100       11.275    1717.7243    1990563.2   -1230981.9    98642.955     -1132339    3148765.1 
   45200         11.3    1774.9274    2006324.6   -1224221.6    101927.93   -1122293.7    3143528.8 
   45300       11.325    1834.0959    2019637.3   -1217510.9    105325.77   -1112185.2    3138292.5 
   45400        11.35    1895.5697    2034479.3   -1210909.6       108856   -1102053.6    3133056.3 
   45500       11.375    1959.6935    2051547.1   -1204486.1     112538.4   -1091947.7      3127820 
   45600         11.4     2023.582      2068615   -1198213.1     116207.3   -1082005.8    3122583.7 
   45700       11.425    2090.8345    2084632.6   -1192137.2    120069.38   -1072067.8    3117347.5 
   45800        11.45    2153.0934    2104619.2   -1185928.9    123644.69   -1062284.2    3112111.2 
   45900       11.475    2217.5519    2122252.1   -1179958.6    127346.32   -1052612.3    3106874.9 
   46000         11.5    2272.2503    2141619.8   -1173537.5    130487.46   -1043050.1    3101638.7 
   46100       11.525    2328.3633    2160314.9     -1167339    133709.83   -1033629.2    3096402.4 
   46200        11.55    2375.1717    2179976.2   -1160662.8    136397.88     -1024265    3091166.2 
   46300       11.575    2414.6668    2200093.3   -1153712.8    138665.95   -1015046.9    3085929.9 
   46400         11.6    2452.8669    2218408.3   -1146837.1    140859.65   -1005977.5    3080693.6 
   46500       11.625    2477.4598    2238206.2   -1139297.8    142271.93    -997025.9    3075457.4 
   46600        11.65    2502.0363    2256093.1   -1131994.5    143683.27    -988311.2    3070221.1 
   46700       11.675    2522.2796    2274445.4   -1124515.2    144845.77   -979669.46    3064984.8 
   46800         11.7    2534.7979    2291206.5   -1116753.4    145564.66   -971188.75    3059748.6 
   46900       11.725     2542.517    2307828.8   -1108943.6    146007.94    -962935.7    3054512.3 
   47000        11.75    2548.5007    2322580.1   -1101104.4    146351.56   -954752.89      3049276 
   47100       11.775    2551.4685    2339235.3   -1093246.3    146521.99   -946724.31    3044039.8 
   47200         11.8    2550.7569    2353900.8   -1085253.5    146481.13   -938772.37    3038803.5 
   47300       11.825    2547.5915      2370776   -1077301.8    146299.35    -931002.4    3033567.2 
   47400        11.85    2545.8075    2383674.9   -1069506.4     146196.9   -923309.53      3028331 
   47500       11.875    2542.1192    2398324.4   -1061769.1    145985.09      -915784    3023094.7 
   47600         11.9    2537.2321    2411319.1   -1053977.7    145704.44   -908273.27    3017858.4 
   47700       11.925     2525.512    2425601.1   -1045830.8     145031.4   -900799.41    3012622.2 
   47800        11.95    2527.2912    2439316.2   -1038561.7    145133.57    -893428.1    3007385.9 
   47900       11.975    2528.7916    2451093.3   -1031150.1    145219.74   -885930.36    3002149.7 
   48000           12    2534.1198    2462752.1   -1023965.2    145525.72   -878439.44    2996913.4 
   48100       12.025    2540.7977    2476898.8   -1016767.9     145909.2   -870858.69    2991677.1 
   48200        12.05    2547.0692    2489746.9   -1009494.9    146269.35   -863225.53    2986440.9 
   48300       12.075    2564.2656    2501783.5   -1002703.1    147256.88   -855446.23    2981204.6 
   48400         12.1    2578.2587    2516245.1   -995618.66    148060.46    -847558.2    2975968.3 
   48500       12.125    2595.2243    2529433.5   -988521.74    149034.74      -839487    2970732.1 
   48600        12.15    2614.9775    2544038.3   -981511.68    150169.09   -831342.59    2965495.8 
   48700       12.175    2639.5962    2559289.3   -974606.33    151582.86   -823023.47    2960259.5 
   48800         12.2    2662.1186    2573576.9   -967427.53    152876.24   -814551.29    2955023.3 
   48900       12.225    2679.5797    2589228.4   -959762.45    153878.97   -805883.47      2949787 
   49000        12.25    2699.4377    2602308.4   -952109.42    155019.35   -797090.07    2944550.7 
   49100       12.275    2720.6698    2619297.9    -944347.1    156238.64   -788108.46    2939314.5 
   49200         12.3    2743.3128    2633147.9   -936527.71    157538.95   -778988.76    2934078.2 
   49300       12.325    2758.4114    2647455.7   -928251.39       158406   -769845.39    2928841.9 
   49400        12.35    2764.0115      2663150   -919279.31     158727.6   -760551.71    2923605.7 
   49500       12.375     2784.478    2677096.9   -910945.13    159902.92   -751042.21    2918369.4 
   49600         12.4    2797.0152    2693731.7   -902190.01    160622.89   -741567.12    2913133.2 
   49700       12.425    2805.9392    2709409.7   -893079.48    161135.36   -731944.12    2907896.9 
   49800        12.45    2813.5638      2724683   -883903.58    161573.22   -722330.36    2902660.6 
   49900       12.475    2818.9452    2742310.3   -874488.46    161882.25   -712606.21    2897424.4 
   50000         12.5    2825.7532      2759592   -865094.95    162273.21   -702821.74    2892188.1 
Loop time of 2579.87 on 96 procs for 50000 steps with 444272 atoms

Performance: 0.419 ns/day, 57.330 hours/ns, 19.381 timesteps/s
100.0% CPU use with 96 MPI tasks x 1 OpenMP threads

MPI task timing breakdown:
Section |  min time  |  avg time  |  max time  |%varavg| %total
---------------------------------------------------------------
Pair    | 1162.9     | 1444.8     | 2477.3     |1007.2 | 56.00
Neigh   | 14.021     | 16.695     | 18.664     |  31.8 |  0.65
Comm    | 43.847     | 408.25     | 1254.2     |1945.9 | 15.82
Output  | 9.0249     | 9.0266     | 9.1094     |   0.3 |  0.35
Modify  | 28.749     | 696.74     | 1215.4     |1914.9 | 27.01
Other   |            | 4.366      |            |       |  0.17

Nlocal:        4627.83 ave        4775 max        4465 min
Histogram: 9 9 5 11 15 7 7 10 14 9
Nghost:        13264.6 ave       13573 max       12838 min
Histogram: 3 4 7 12 15 10 9 11 14 11
Neighs:         0.00000 ave           0 max           0 min
Histogram: 96 0 0 0 0 0 0 0 0 0
FullNghs:  1.56686e+06 ave 1.74212e+06 max      993051 min
Histogram: 12 0 0 0 0 0 1 14 33 36

Total # of neighbors = 1.5041896e+08
Ave neighs/atom = 338.57403
Neighbor list builds = 527
Dangerous builds = 0
Total wall time: 0:43:04
