LAMMPS (29 Sep 2021)
  using 1 OpenMP thread(s) per MPI task
Reading data file ...
  orthogonal box = (0.53774699 0.53333966 0.0000000) to (100.70934 100.71374 665.42400)
  2 by 3 by 16 MPI processor grid
  reading atoms ...
  494500 atoms
  reading velocities ...
  494500 velocities
  read_data CPU = 4.533 seconds
247245 atoms in group g_left
247255 atoms in group g_right

CITE-CITE-CITE-CITE-CITE-CITE-CITE-CITE-CITE-CITE-CITE-CITE-CITE

Your simulation uses code contributions which should be cited:
- @article{cjiang2012
The log file lists these citations in BibTeX format.

CITE-CITE-CITE-CITE-CITE-CITE-CITE-CITE-CITE-CITE-CITE-CITE-CITE

Neighbor list info ...
  update every 1 steps, delay 10 steps, check yes
  max neighbors/atom: 2000, page size: 100000
  master list distance cutoff = 8.28721
  ghost atom cutoff = 8.28721
  binsize = 4.143605, bins = 25 25 161
  3 neighbor lists, perpetual/occasional/extra = 3 0 0
  (1) pair eam/alloy, perpetual, skip from (3)
      attributes: half, newton on
      pair build: skip
      stencil: none
      bin: none
  (2) pair edip/multi, perpetual
      attributes: full, newton on
      pair build: full/bin/atomonly
      stencil: full/bin/3d
      bin: standard
  (3) neighbor class addition, perpetual, half/full from (2)
      attributes: half, newton on
      pair build: halffull/newton
      stencil: none
      bin: none
Setting up Verlet run ...
  Unit style    : metal
  Current step  : 0
  Time step     : 0.00025
Per MPI rank memory allocation (min/avg/max) = 9.771 | 12.40 | 15.65 Mbytes
Step Time Temp Press PotEng KinEng TotEng Volume 
       0            0    1913.7093    16685.354   -2200887.6    122322.41   -2078565.2    6677683.2 
     100        0.025    1913.2098    16844.509   -2200875.6    122290.48   -2078585.1    6672665.6 
     200         0.05    1913.4263    16506.034   -2200903.9    122304.32   -2078599.6      6667648 
     300        0.075    1913.0694    16600.672   -2200886.7    122281.51   -2078605.2    6662630.4 
     400          0.1     1913.472    16939.939   -2200907.4    122307.24   -2078600.1    6657612.8 
     500        0.125    1913.1166    16835.604   -2200877.8    122284.52   -2078593.3    6652595.2 
     600         0.15    1913.1304    16828.953   -2200877.2    122285.41   -2078591.8    6647577.5 
     700        0.175     1913.121    16763.898     -2200878    122284.81   -2078593.2    6642559.9 
     800          0.2    1914.1692    16866.676   -2200938.7     122351.8   -2078586.9    6637542.3 
     900        0.225    1913.5037    16126.718   -2200883.2    122309.26   -2078573.9    6632524.7 
    1000         0.25    1913.1961    16844.385   -2200862.3    122289.61   -2078572.7    6627507.1 
    1100        0.275    1913.5789    16990.937   -2200900.8    122314.07   -2078586.7    6622489.5 
    1200          0.3    1913.5077    16902.431   -2200905.3    122309.52   -2078595.8    6617471.8 
    1300        0.325    1913.3726    16628.924   -2200889.7    122300.88   -2078588.8    6612454.2 
    1400         0.35    1913.8905    16622.433   -2200912.1    122333.99   -2078578.1    6607436.6 
    1500        0.375    1913.3477    16861.184   -2200878.1     122299.3   -2078578.8      6602419 
    1600          0.4    1913.4798    16730.193   -2200891.2    122307.74   -2078583.4    6597401.4 
    1700        0.425    1913.5916    16997.378   -2200892.7    122314.88   -2078577.8    6592383.8 
    1800         0.45    1913.5683    16947.569   -2200882.2     122313.4   -2078568.8    6587366.2 
    1900        0.475    1913.6583    16883.514   -2200892.7    122319.15   -2078573.5    6582348.5 
    2000          0.5    1913.3417    16691.533   -2200889.8    122298.91   -2078590.8    6577330.9 
    2100        0.525    1913.4707    16822.758   -2200905.1    122307.16     -2078598    6572313.3 
    2200         0.55     1913.344    16933.797   -2200888.4    122299.06   -2078589.3    6567295.7 
    2300        0.575    1913.5172    16891.387   -2200894.8    122310.13   -2078584.7    6562278.1 
    2400          0.6     1913.432    16886.735   -2200901.1    122304.69   -2078596.4    6557260.5 
    2500        0.625    1912.8968    17191.868   -2200879.2    122270.47   -2078608.7    6552242.9 
    2600         0.65    1913.1129    17266.109   -2200887.4    122284.29   -2078603.1    6547225.2 
    2700        0.675    1913.5459    17018.376   -2200901.3    122311.96   -2078589.3    6542207.6 
    2800          0.7     1913.459    16906.953   -2200895.2    122306.41   -2078588.7      6537190 
    2900        0.725    1913.4014    16840.193   -2200899.3    122302.73   -2078596.6    6532172.4 
    3000         0.75    1912.9841    16481.208   -2200874.8    122276.05   -2078598.8    6527154.8 
    3100        0.775    1913.1011    16994.141   -2200878.7    122283.53   -2078595.1    6522137.2 
    3200          0.8    1913.1741    16790.614   -2200883.3     122288.2   -2078595.1    6517119.5 
    3300        0.825    1913.4731    16672.317   -2200901.4    122307.31   -2078594.1    6512101.9 
    3400         0.85    1913.5966    17130.377   -2200896.6    122315.21   -2078581.4    6507084.3 
    3500        0.875    1913.8017    16975.874   -2200891.1    122328.31   -2078562.8    6502066.7 
    3600          0.9    1914.2746    16811.922   -2200910.7    122358.54   -2078552.2    6497049.1 
    3700        0.925    1913.9124    17366.112     -2200891    122335.39   -2078555.6    6492031.5 
    3800         0.95    1913.7537     16715.59   -2200883.2    122325.25   -2078557.9    6487013.9 
    3900        0.975    1913.8383    16918.711   -2200881.4    122330.65   -2078550.7    6481996.2 
    4000            1    1914.2269    17373.915   -2200897.1    122355.49   -2078541.6    6476978.6 
    4100        1.025    1913.9643    17276.983   -2200876.1    122338.71   -2078537.4      6471961 
    4200         1.05    1914.9542    16984.029   -2200938.9    122401.98     -2078537    6466943.4 
    4300        1.075     1914.065    17027.022   -2200885.5    122345.14   -2078540.4    6461925.8 
    4400          1.1    1913.8936    17231.092   -2200883.9    122334.19   -2078549.7    6456908.2 
    4500        1.125    1913.8426    17291.704   -2200885.1    122330.93   -2078554.2    6451890.5 
    4600         1.15    1913.9622    17163.986   -2200887.7    122338.58   -2078549.2    6446872.9 
    4700        1.175    1914.1268    17253.406   -2200888.9    122349.09   -2078539.9    6441855.3 
    4800          1.2    1914.1347    17133.804   -2200883.3     122349.6   -2078533.7    6436837.7 
    4900        1.225    1914.3451    17365.455   -2200899.4    122363.05   -2078536.4    6431820.1 
    5000         1.25    1914.5867    17249.857   -2200916.2    122378.49   -2078537.7    6426802.5 
    5100        1.275    1915.2118    17229.545   -2200948.1    122418.45   -2078529.6    6421784.9 
    5200          1.3    1915.6277    17061.689   -2200968.5    122445.03   -2078523.5    6416767.2 
    5300        1.325    1916.9261    17103.134   -2201054.4    122528.02   -2078526.4    6411749.6 
    5400         1.35    1917.7112    18191.132   -2201109.2    122578.21     -2078531      6406732 
    5500        1.375    1917.1558    19890.266   -2201074.5    122542.71   -2078531.8    6401714.4 
    5600          1.4    1911.6354    24090.627   -2200720.2    122189.85   -2078530.3    6396696.8 
    5700        1.425     1898.146    30146.631   -2199856.6    121327.62     -2078529    6391679.2 
    5800         1.45    1877.8391    39069.545   -2198557.3    120029.62   -2078527.7    6386661.5 
    5900        1.475    1853.5689    48454.629   -2197007.2    118478.29   -2078528.9    6381643.9 
    6000          1.5    1827.4804    57247.936   -2195347.2    116810.74   -2078536.4    6376626.3 
    6100        1.525      1800.75    66334.501   -2193645.4    115102.16   -2078543.2    6371608.7 
    6200         1.55    1776.7443    74239.747   -2192105.9    113567.74   -2078538.2    6366591.1 
    6300        1.575    1752.9648    82505.963   -2190575.3    112047.78   -2078527.6    6361573.5 
    6400          1.6    1730.1613    88702.435   -2189118.1     110590.2   -2078527.9    6356555.9 
    6500        1.625    1712.5032    92197.085     -2188005    109461.52   -2078543.5    6351538.2 
    6600         1.65    1699.8327    92397.527     -2187211    108651.63   -2078559.4    6346520.6 
    6700        1.675    1693.8113     91091.87   -2186828.6    108266.75   -2078561.8      6341503 
    6800          1.7    1693.5333    89064.213   -2186804.1    108248.98   -2078555.1    6336485.4 
    6900        1.725    1694.9401    85835.531   -2186890.5     108338.9   -2078551.6    6331467.8 
    7000         1.75    1697.8295    82545.194   -2187073.3    108523.59   -2078549.7    6326450.2 
    7100        1.775    1700.8462    78891.833   -2187261.4    108716.41     -2078545    6321432.5 
    7200          1.8    1705.0759    74756.677   -2187528.1    108986.77   -2078541.4    6316414.9 
    7300        1.825    1707.8635    72175.581     -2187708    109164.95     -2078543    6311397.3 
    7400         1.85    1709.6453    68315.981   -2187825.5    109278.84   -2078546.7    6306379.7 
    7500        1.875    1710.6106    64794.032   -2187889.3    109340.54   -2078548.8    6301362.1 
    7600          1.9     1709.704    61572.317   -2187837.7    109282.59   -2078555.1    6296344.5 
    7700        1.925    1706.7531    59019.476     -2187658    109093.97   -2078564.1    6291326.9 
    7800         1.95    1703.3754    56008.598   -2187446.1    108878.07     -2078568    6286309.2 
    7900        1.975    1696.8358    53537.351   -2187025.1    108460.07     -2078565    6281291.6 
    8000            2    1692.1173    50928.306   -2186725.9    108158.47   -2078567.4      6276274 
    8100        2.025    1684.8453     48927.39   -2186272.4    107693.65   -2078578.7    6271256.4 
    8200         2.05     1678.588    47463.913   -2185879.9    107293.69   -2078586.3    6266238.8 
    8300        2.075    1671.2228    46208.926   -2185402.9    106822.91   -2078579.9    6261221.2 
    8400          2.1    1663.2682    44297.944   -2184885.8    106314.46   -2078571.4    6256203.6 
    8500        2.125    1655.7573    42914.529   -2184411.1    105834.37   -2078576.7    6251185.9 
    8600         2.15    1647.5054    42327.597   -2183889.4    105306.92   -2078582.5    6246168.3 
    8700        2.175     1640.654    41640.017   -2183440.8    104868.98   -2078571.8    6241150.7 
    8800          2.2    1634.2111    41607.454     -2183008    104457.16   -2078550.8    6236133.1 
    8900        2.225     1628.395    41513.212   -2182624.9     104085.4   -2078539.5    6231115.5 
    9000         2.25    1621.3141     42162.79   -2182176.3     103632.8   -2078543.5    6226097.9 
    9100        2.275    1616.1681    42283.629   -2181850.2    103303.87   -2078546.3    6221080.2 
    9200          2.3    1610.8308    42737.534     -2181504    102962.72   -2078541.3    6216062.6 
    9300        2.325    1605.6351    43936.668   -2181171.7    102630.61     -2078541      6211045 
    9400         2.35    1601.0793    44713.898   -2180888.3    102339.41   -2078548.9    6206027.4 
    9500        2.375    1598.2152    45796.737   -2180709.1    102156.34   -2078552.8    6201009.8 
    9600          2.4    1595.5017    47364.149   -2180530.9    101982.89     -2078548    6195992.2 
    9700        2.425    1592.0133    48872.465   -2180304.7    101759.92   -2078544.7    6190974.6 
    9800         2.45    1589.0738    50395.718   -2180118.3    101572.03   -2078546.3    6185956.9 
    9900        2.475    1585.8102    52211.711     -2179906    101363.42   -2078542.6    6180939.3 
   10000          2.5    1582.0424    54483.407   -2179654.5    101122.59   -2078531.9    6175921.7 
   10100        2.525    1577.9467    56081.285   -2179390.2    100860.79   -2078529.4    6170904.1 
   10200         2.55    1573.8841    59023.023   -2179139.5    100601.12   -2078538.4    6165886.5 
   10300        2.575    1569.1873    61525.454   -2178846.3     100300.9   -2078545.4    6160868.9 
   10400          2.6    1563.8589    64169.999   -2178501.3    99960.317   -2078540.9    6155851.2 
   10500        2.625    1557.1203     66298.43   -2178066.2    99529.591   -2078536.6    6150833.6 
   10600         2.65    1548.0977    69001.823   -2177498.6    98952.876   -2078545.7      6145816 
   10700        2.675    1539.3687    72449.561   -2176951.1    98394.928   -2078556.1    6140798.4 
   10800          2.7    1528.0133    75379.425   -2176222.8    97669.101   -2078553.7    6135780.8 
   10900        2.725    1519.0339    78188.741   -2175639.1    97095.147     -2078544    6130763.2 
   11000         2.75    1507.8317    81039.177   -2174916.4    96379.112   -2078537.3    6125745.6 
   11100        2.775    1497.8544    84191.058   -2174276.4    95741.375     -2078535    6120727.9 
   11200          2.8    1488.4624    87427.597   -2173671.1    95141.049   -2078530.1    6115710.3 
   11300        2.825    1479.3865    89571.609   -2173084.1    94560.923   -2078523.2    6110692.7 
   11400         2.85    1470.5619    91692.363   -2172517.8    93996.864   -2078520.9    6105675.1 
   11500        2.875     1462.178      93781.5   -2171982.1    93460.974   -2078521.1    6100657.5 
   11600          2.9    1455.9344        95729   -2171581.5    93061.889   -2078519.6    6095639.9 
   11700        2.925    1447.8047    97729.553   -2171061.5    92542.248   -2078519.3    6090622.2 
   11800         2.95    1440.8304    99503.612     -2170616    92096.456   -2078519.5    6085604.6 
   11900        2.975    1435.0819    100825.22   -2170250.1    91729.016   -2078521.1      6080587 
   12000            3    1428.7536    102348.27     -2169846    91324.519   -2078521.4    6075569.4 
   12100        3.025    1423.0502    102415.14     -2169482    90959.963     -2078522    6070551.8 
   12200         3.05    1417.5934    103409.56   -2169135.6    90611.172   -2078524.4    6065534.2 
   12300        3.075    1410.0711    103518.65   -2168655.6    90130.353   -2078525.2    6060516.6 
   12400          3.1    1402.6546    104919.06   -2168178.3    89656.294     -2078522    6055498.9 
   12500        3.125    1395.4328    106218.51   -2167710.9    89194.686   -2078516.2    6050481.3 
   12600         3.15    1389.0258    106019.79   -2167298.1    88785.158     -2078513    6045463.7 
   12700        3.175    1381.9883    106656.05   -2166848.2    88335.327   -2078512.8    6040446.1 
   12800          3.2    1374.9558    106811.38   -2166395.4    87885.817   -2078509.6    6035428.5 
   12900        3.225    1368.4526    107201.95   -2165967.1    87470.136     -2078497    6030410.9 
   13000         3.25    1361.8654    108068.25   -2165531.3    87049.093   -2078482.2    6025393.2 
   13100        3.275    1355.6705    108125.93   -2165133.2     86653.12   -2078480.1    6020375.6 
   13200          3.3    1350.3524     108931.1   -2164796.1    86313.194   -2078482.9      6015358 
   13300        3.325    1343.7095    109246.32   -2164369.7    85888.585   -2078481.2    6010340.4 
   13400         3.35    1339.4099    109225.49   -2164095.2    85613.755   -2078481.5    6005322.8 
   13500        3.375     1335.642    109669.76     -2163859    85372.919   -2078486.1    6000305.2 
   13600          3.4    1332.5774     110503.5   -2163668.1    85177.035     -2078491    5995287.6 
   13700        3.425    1327.7337    110895.19   -2163357.9    84867.424   -2078490.4    5990269.9 
   13800         3.45    1324.0299    111582.28   -2163113.6    84630.686     -2078483    5985252.3 
   13900        3.475     1320.372     113216.8     -2162871    84396.872   -2078474.1    5980234.7 
   14000          3.5    1316.9486    113778.11   -2162644.2    84178.054   -2078466.2    5975217.1 
   14100        3.525     1312.582    115284.56   -2162355.1    83898.943   -2078456.2    5970199.5 
   14200         3.55    1308.7037    115532.43   -2162100.4    83651.048   -2078449.4    5965181.9 
   14300        3.575    1303.1079    117840.61     -2161750     83293.37   -2078456.6    5960164.3 
   14400          3.6    1299.5804    118829.48   -2161536.1    83067.896   -2078468.2    5955146.6 
   14500        3.625    1293.7715    120620.08   -2161169.3    82696.598   -2078472.7      5950129 
   14600         3.65    1288.2553     122782.7   -2160816.1    82344.004   -2078472.1    5945111.4 
   14700        3.675    1282.9728    124586.45   -2160479.5    82006.356   -2078473.2    5940093.8 
   14800          3.7    1276.0493    125986.49   -2160038.7    81563.811   -2078474.9    5935076.2 
   14900        3.725    1269.8387    127752.07   -2159639.9    81166.837   -2078473.1    5930058.6 
   15000         3.75    1261.8458    129687.95   -2159126.7    80655.936   -2078470.8    5925040.9 
   15100        3.775    1255.5233    131208.04   -2158726.3    80251.807   -2078474.5    5920023.3 
   15200          3.8    1249.0039    133173.72   -2158320.8    79835.095   -2078485.7    5915005.7 
   15300        3.825    1242.0458    134098.69   -2157880.6    79390.338   -2078490.2    5909988.1 
   15400         3.85    1234.9593    136348.26   -2157417.7    78937.382   -2078480.3    5904970.5 
   15500        3.875    1227.7434    137302.56   -2156945.6    78476.145   -2078469.5    5899952.9 
   15600          3.9    1221.3637    138706.74   -2156537.5     78068.36   -2078469.2    5894935.3 
   15700        3.925    1214.5116    139505.27     -2156105    77630.384   -2078474.6    5889917.6 
   15800         3.95    1207.5109    140385.11   -2155660.7    77182.903   -2078477.8      5884900 
   15900        3.975    1202.0952    141651.56   -2155313.4    76836.736   -2078476.7    5879882.4 
   16000            4    1197.5808    142570.02   -2155024.3    76548.184   -2078476.2    5874864.8 
   16100        4.025    1192.1185     143498.9   -2154674.3    76199.036   -2078475.3    5869847.2 
   16200         4.05    1187.9477    144307.05   -2154404.2    75932.447   -2078471.8    5864829.6 
   16300        4.075    1183.1053    144456.03   -2154089.2    75622.923   -2078466.2    5859811.9 
   16400          4.1    1178.7876    145277.19   -2153807.6    75346.937   -2078460.7    5854794.3 
   16500        4.125    1174.3791    146076.65   -2153523.7    75065.155   -2078458.6    5849776.7 
   16600         4.15    1170.3353    146219.92   -2153261.9    74806.679   -2078455.2    5844759.1 
   16700        4.175    1165.6376    146420.39   -2152958.5    74506.406   -2078452.1    5839741.5 
   16800          4.2    1161.0527    146867.25   -2152665.1     74213.34   -2078451.8    5834723.9 
   16900        4.225    1155.2131    147057.66   -2152293.2    73840.078   -2078453.2    5829706.3 
   17000         4.25    1148.3395    148317.81   -2151856.9    73400.726   -2078456.2    5824688.6 
   17100        4.275    1143.8939    149729.18   -2151574.5    73116.566   -2078457.9      5819671 
   17200          4.3    1136.3918    150893.79   -2151093.6    72637.044   -2078456.5    5814653.4 
   17300        4.325    1130.6335    151503.47   -2150722.7    72268.977   -2078453.7    5809635.8 
   17400         4.35    1123.8362    152548.12   -2150284.8    71834.502   -2078450.3    5804618.2 
   17500        4.375    1115.4863    153864.48   -2149749.4    71300.786   -2078448.6    5799600.6 
   17600          4.4    1108.3579    154636.37   -2149297.8    70845.145   -2078452.6    5794582.9 
   17700        4.425    1099.4852     156561.9   -2148732.7    70278.007   -2078454.7    5789565.3 
   17800         4.45    1092.9772    157908.19   -2148308.7    69862.025   -2078446.7    5784547.7 
   17900        4.475    1085.3578    158572.16   -2147807.2    69374.999   -2078432.2    5779530.1 
   18000          4.5     1079.509    160874.34   -2147423.9    69001.149   -2078422.7    5774512.5 
   18100        4.525    1072.6603    162802.58   -2146987.7    68563.385   -2078424.4    5769494.9 
   18200         4.55    1066.7335    163646.68   -2146607.4    68184.554   -2078422.9    5764477.3 
   18300        4.575    1060.2419    166028.77   -2146180.5    67769.618   -2078410.9    5759459.6 
   18400          4.6    1053.6111    167781.83   -2145745.9    67345.781   -2078400.1      5754442 
   18500        4.625    1048.3216    168597.26   -2145405.7     67007.68     -2078398    5749424.4 
   18600         4.65    1042.9382    170178.44   -2145057.2    66663.582   -2078393.6    5744406.8 
   18700        4.675    1035.4821    171452.11   -2144567.2    66186.993   -2078380.2    5739389.2 
   18800          4.7    1029.8723    173819.03   -2144201.9    65828.421   -2078373.5    5734371.6 
   18900        4.725    1022.7876    174686.93   -2143756.4    65375.576   -2078380.8    5729353.9 
   19000         4.75    1016.6638    176784.34   -2143372.1    64984.146   -2078387.9    5724336.3 
   19100        4.775    1010.9147     178140.7   -2142998.8    64616.672   -2078382.1    5719318.7 
   19200          4.8     1004.853    178648.76   -2142598.5    64229.212   -2078369.3    5714301.1 
   19300        4.825    996.95277    180919.06   -2142089.1    63724.236   -2078364.9    5709283.5 
   19400         4.85     992.2871    181310.96   -2141796.4    63426.011   -2078370.4    5704265.9 
   19500        4.875    985.66094    182607.66   -2141376.4    63002.474   -2078373.9    5699248.3 
   19600          4.9    979.00048    183528.74   -2140947.5    62576.744   -2078370.7    5694230.6 
   19700        4.925    972.49885    184081.18   -2140528.9    62161.166   -2078367.7      5689213 
   19800         4.95    966.62663    184982.62   -2140150.3     61785.82   -2078364.5    5684195.4 
   19900        4.975    960.28997    185196.18   -2139741.4    61380.787   -2078360.6    5679177.8 
   20000            5     953.0036    185533.66     -2139277    60915.049     -2078362    5674160.2 
   20100        5.025    947.27193    185287.24   -2138919.6    60548.686   -2078370.9    5669142.6 
   20200         5.05    940.06238    186263.22   -2138462.3    60087.859   -2078374.4      5664125 
   20300        5.075    933.96463    186406.99     -2138059    59698.097   -2078360.9    5659107.3 
   20400          5.1    927.66859    186755.95   -2137638.6     59295.66   -2078342.9    5654089.7 
   20500        5.125    921.39792    186202.14   -2137235.5    58894.845   -2078340.6    5649072.1 
   20600         5.15    915.34447    186881.67   -2136860.1    58507.915   -2078352.2    5644054.5 
   20700        5.175    909.32984    187000.21   -2136480.9    58123.465   -2078357.4    5639036.9 
   20800          5.2    901.31401    187541.21   -2135961.2    57611.101   -2078350.1    5634019.3 
   20900        5.225    895.71427    188116.92   -2135601.2    57253.171   -2078348.1    5629001.6 
   21000         5.25     889.1795    188379.68   -2135193.9    56835.475   -2078358.4      5623984 
   21100        5.275    882.29161    188038.95   -2134756.2    56395.208     -2078361    5618966.4 
   21200          5.3    875.12853    188747.91   -2134284.7    55937.351   -2078347.4    5613948.8 
   21300        5.325    869.12624    189083.34   -2133893.3    55553.691   -2078339.6    5608931.2 
   21400         5.35    861.51257    189656.49   -2133420.6    55067.033   -2078353.6    5603913.6 
   21500        5.375    854.53257    189853.35   -2132994.9    54620.878     -2078374      5598896 
   21600          5.4    846.76436    191056.77   -2132498.7    54124.342   -2078374.4    5593878.3 
   21700        5.425    840.67572    192840.59   -2132088.2    53735.162     -2078353    5588860.7 
   21800         5.45    835.22421    193447.15     -2131723    53386.707   -2078336.3    5583843.1 
   21900        5.475    827.43769    193583.61   -2131226.7        52889   -2078337.7    5578825.5 
   22000          5.5    821.34252    195075.78   -2130840.2    52499.403   -2078340.8    5573807.9 
   22100        5.525    816.47166    196502.52   -2130523.3    52188.062   -2078335.3    5568790.3 
   22200         5.55    810.27463    196770.78   -2130123.9    51791.954   -2078331.9    5563772.6 
   22300        5.575     803.7189    198476.28   -2129712.5    51372.919   -2078339.6      5558755 
   22400          5.6    798.58668    200208.47   -2129393.2    51044.872   -2078348.3    5553737.4 
   22500        5.625    793.68203    202033.21     -2129074    50731.371   -2078342.6    5548719.8 
   22600         5.65    788.51293    203347.87   -2128734.8    50400.968   -2078333.8    5543702.2 
   22700        5.675    782.45958    205534.96   -2128352.3    50014.044   -2078338.3    5538684.6 
   22800          5.7     777.0345    208285.53   -2128015.2    49667.278   -2078347.9      5533667 
   22900        5.725    772.88142    209713.03   -2127750.7    49401.817   -2078348.9    5528649.3 
   23000         5.75    767.47285    211900.82   -2127394.8    49056.107   -2078338.7    5523631.7 
   23100        5.775      763.097    213512.58   -2127106.8    48776.407   -2078330.4    5518614.1 
   23200          5.8    757.53591    215536.89   -2126750.3    48420.947   -2078329.4    5513596.5 
   23300        5.825    751.81692    217021.98   -2126382.7    48055.395   -2078327.3    5508578.9 
   23400         5.85    746.12216    219956.21   -2126013.3    47691.392   -2078321.9    5503561.3 
   23500        5.875    740.92599    220883.99   -2125677.4    47359.258   -2078318.1    5498543.6 
   23600          5.9    733.98838    223374.27   -2125230.9    46915.812   -2078315.1      5493526 
   23700        5.925     728.5682    225597.66   -2124873.7     46569.36   -2078304.3    5488508.4 
   23800         5.95    722.66113    227849.88   -2124480.4    46191.786   -2078288.6    5483490.8 
   23900        5.975    716.60439     228809.8   -2124069.8    45804.645   -2078265.1    5478473.2 
   24000            6    711.86126    230790.42   -2123707.4    45501.469   -2078205.9    5473455.6 
   24100        6.025    706.54102    232732.97   -2123231.2    45161.404   -2078069.8      5468438 
   24200         6.05    704.71007     234520.2   -2122858.1    45044.372   -2077813.7    5463420.3 
   24300        6.075    702.11436    236125.53   -2122265.4    44878.456     -2077387    5458402.7 
   24400          6.1    704.05697    238652.58   -2121728.9    45002.626   -2076726.3    5453385.1 
   24500        6.125    708.71813    240497.37   -2121124.9    45300.563   -2075824.3    5448367.5 
   24600         6.15    716.08384    241787.43   -2120571.4    45771.372     -2074800    5443349.9 
   24700        6.175    721.49154    244082.26   -2119931.4    46117.027   -2073814.4    5438332.3 
   24800          6.2    724.62496    245332.07   -2119255.2    46317.312   -2072937.9    5433314.6 
   24900        6.225    728.59974     246631.8   -2118683.4    46571.376     -2072112      5428297 
   25000         6.25    731.61865     248282.4   -2117994.7    46764.341   -2071230.4    5423279.4 
   25100        6.275    737.20911    249485.08   -2117334.6    47121.678   -2070212.9    5418261.8 
   25200          6.3    743.96117    251199.95   -2116603.5    47553.264   -2069050.2    5413244.2 
   25300        6.325    753.82451    252024.64   -2116015.2    48183.718   -2067831.5    5408226.6 
   25400         6.35    761.84519    253349.86   -2115349.5    48696.392   -2066653.1      5403209 
   25500        6.375    770.00759    253897.32   -2114757.8    49218.124   -2065539.7    5398191.3 
   25600          6.4    776.26141    255704.67   -2114061.3    49617.862   -2064443.4    5393173.7 
   25700        6.425    785.31209    255962.44   -2113500.7    50196.373   -2063304.3    5388156.1 
   25800         6.45    793.40626     257659.7   -2112809.1    50713.745   -2062095.4    5383138.5 
   25900        6.475    804.71185    258914.62   -2112279.3    51436.387   -2060842.9    5378120.9 
   26000          6.5    814.83097    259854.27   -2111683.5    52083.191   -2059600.3    5373103.3 
   26100        6.525    824.45296    260576.51   -2111096.6    52698.219   -2058398.3    5368085.7 
   26200         6.55    833.78993    260690.92   -2110534.8    53295.029   -2057239.8      5363068 
   26300        6.575    842.42785    261953.16   -2109956.6    53847.156   -2056109.5    5358050.4 
   26400          6.6    849.84239    263941.49   -2109306.3    54321.086   -2054985.2    5353032.8 
   26500        6.625     860.3611    265175.14   -2108864.1    54993.432   -2053870.6    5348015.2 
   26600         6.65    867.02281    265897.75   -2108202.1    55419.242   -2052782.9    5342997.6 
   26700        6.675    875.31636    267350.62   -2107666.3    55949.357   -2051716.9      5337980 
   26800          6.7    882.25539    267573.95   -2107044.1    56392.893   -2050651.2    5332962.3 
   26900        6.725    890.26165     268828.9   -2106501.7    56904.645     -2049597    5327944.7 
   27000         6.75    896.18779    270289.32   -2105864.5    57283.439   -2048581.1    5322927.1 
   27100        6.775    900.22222    272301.66   -2105152.1    57541.316   -2047610.8    5317909.5 
   27200          6.8    904.29827    272711.73   -2104465.9    57801.852     -2046664    5312891.9 
   27300        6.825    907.85095    273866.12   -2103781.9    58028.936     -2045753    5307874.3 
   27400         6.85    910.38754    274801.01   -2103119.4    58191.073   -2044928.3    5302856.7 
   27500        6.875    909.40084    275825.55   -2102331.8    58128.004   -2044203.8      5297839 
   27600          6.9    907.41736    276820.54   -2101522.2    58001.222     -2043521    5292821.4 
   27700        6.925    905.86313    279288.87   -2100711.8    57901.877   -2042809.9    5287803.8 
   27800         6.95    904.31449    280321.35     -2099874    57802.889   -2042071.1    5282786.2 
   27900        6.975    901.63947    281076.68   -2098969.6    57631.904   -2041337.7    5277768.6 
   28000            7    897.81989    283211.01   -2098023.6    57387.761   -2040635.8      5272751 
   28100        7.025    891.50599    284799.27   -2096962.8    56984.183   -2039978.6    5267733.3 
   28200         7.05     884.9856    287235.83   -2095939.5    56567.406   -2039372.1    5262715.7 
   28300        7.075    875.41269    288730.15   -2094738.4    55955.515   -2038782.9    5257698.1 
   28400          7.1    867.42743    291573.95   -2093609.3    55445.105   -2038164.2    5252680.5 
   28500        7.125    858.16244    293500.98   -2092374.2    54852.896   -2037521.3    5247662.9 
   28600         7.15       849.49    295053.86   -2091205.3    54298.562   -2036906.7    5242645.3 
   28700        7.175    839.15718    297254.65   -2089985.1    53638.098     -2036347    5237627.7 
   28800          7.2    827.78669    299294.91   -2088723.5    52911.308   -2035812.2      5232610 
   28900        7.225    819.14241    301472.34     -2087621    52358.774   -2035262.2    5227592.4 
   29000         7.25    810.38817    303827.06   -2086488.1    51799.212   -2034688.9    5222574.8 
   29100        7.275    800.55432    305988.48   -2085261.5    51170.641   -2034090.8    5217557.2 
   29200          7.3    791.17291    308305.14   -2084034.3    50570.991   -2033463.3    5212539.6 
   29300        7.325     784.2852    311987.84   -2082949.8    50130.735   -2032819.1      5207522 
   29400         7.35    774.85524    313372.42   -2081707.6    49527.982   -2032179.6    5202504.3 
   29500        7.375    765.67704     315765.3   -2080469.1     48941.32   -2031527.8    5197486.7 
   29600          7.4    759.17269    318660.97   -2079366.7    48525.568   -2030841.2    5192469.1 
   29700        7.425     752.2352    320816.78   -2078213.5    48082.131   -2030131.4    5187451.5 
   29800         7.45    746.20549     323496.9   -2077110.2    47696.718   -2029413.5    5182433.9 
   29900        7.475    739.03647     325885.4   -2075905.6    47238.481   -2028667.1    5177416.3 
   30000          7.5    733.98624     328298.1   -2074777.8    46915.675   -2027862.2    5172398.7 
   30100        7.525      728.913     330238.7   -2073591.7    46591.399   -2027000.3      5167381 
   30200         7.55    726.16317    332954.71   -2072488.8    46415.633   -2026073.2    5162363.4 
   30300        7.575    721.88415    335931.81   -2071153.5    46142.122   -2025011.4    5157345.8 
   30400          7.6    723.63165    338216.81   -2069920.9    46253.821   -2023667.1    5152328.2 
   30500        7.625    729.08485    342168.98   -2068510.6    46602.384   -2021908.2    5147310.6 
   30600         7.65     740.2635    344315.13     -2067042    47316.912   -2019725.1      5142293 
   30700        7.675    754.27752    348074.31     -2065500    48212.674   -2017287.3    5137275.3 
   30800          7.7     769.6625     350831.5   -2063997.2    49196.067   -2014801.2    5132257.7 
   30900        7.725    783.76034    354867.52   -2062367.9    50097.187   -2012270.7    5127240.1 
   31000         7.75    799.31365    358004.17   -2060769.7    51091.339   -2009678.3    5122222.5 
   31100        7.775    816.44792    362281.68   -2059243.1    52186.545   -2007056.6    5117204.9 
   31200          7.8     829.1919    366723.34   -2057469.8    53001.128   -2004468.7    5112187.3 
   31300        7.825    840.50801    369640.46   -2055634.6    53724.442   -2001910.1    5107169.7 
   31400         7.85    855.67739     373087.6   -2054009.3    54694.054   -1999315.2      5102152 
   31500        7.875    869.12859    376565.03   -2052206.8    55553.841     -1996653    5097134.4 
   31600          7.9    887.39477    379546.86   -2050656.1    56721.397   -1993934.7    5092116.8 
   31700        7.925     905.1698    383093.88   -2048980.9     57857.56   -1991123.4    5087099.2 
   31800         7.95    925.54874    385923.23   -2047290.8    59160.161   -1988130.6    5082081.6 
   31900        7.975    952.61151    388429.03   -2045857.6    60889.987   -1984967.6      5077064 
   32000            8    978.56456    391277.97   -2044347.8     62548.88   -1981798.9    5072046.3 
   32100        8.025     1004.266    392814.51   -2042970.5    64191.689   -1978778.8    5067028.7 
   32200         8.05     1026.469    395970.44   -2041529.1    65610.883   -1975918.2    5062011.1 
   32300        8.075    1047.6092     398085.2   -2040143.8    66962.148   -1973181.6    5056993.5 
   32400          8.1    1067.1859    401145.02     -2038802    68213.468   -1970588.5    5051975.9 
   32500        8.125    1083.6989     402543.9   -2037427.3    69268.961   -1968158.3    5046958.3 
   32600         8.15    1096.6067     404909.7   -2035947.2    70094.014   -1965853.2    5041940.7 
   32700        8.175      1111.55    407383.48   -2034614.9     71049.18   -1963565.7      5036923 
   32800          8.2    1125.7815    409909.03   -2033156.2    71958.842   -1961197.3    5031905.4 
   32900        8.225    1141.0258    412347.15     -2031695    72933.241   -1958761.8    5026887.8 
   33000         8.25    1154.5354    415480.11   -2030137.9     73796.76   -1956341.1    5021870.2 
   33100        8.275    1166.4345    417307.05   -2028575.6    74557.343   -1954018.3    5016852.6 
   33200          8.3    1175.0951    420808.05   -2026916.2    75110.917   -1951805.2      5011835 
   33300        8.325    1184.5443    425108.27   -2025361.4    75714.903   -1949646.5    5006817.4 
   33400         8.35    1193.7551    427003.63   -2023775.8    76303.645   -1947472.2    5001799.7 
   33500        8.375    1203.6601    430334.04   -2022195.9    76936.767   -1945259.2    4996782.1 
   33600          8.4    1217.8212    433813.06   -2020885.9    77841.927   -1943043.9    4991764.5 
   33700        8.425    1230.2677    435065.87   -2019522.1    78637.498   -1940884.6    4986746.9 
   33800         8.45    1243.2071    438102.17   -2018240.1    79464.573   -1938775.6    4981729.3 
   33900        8.475    1259.4048    440012.04   -2017139.4    80499.913   -1936639.5    4976711.7 
   34000          8.5    1276.3685    443314.82   -2016012.4    81584.215   -1934428.1      4971694 
   34100        8.525    1294.3042    445553.04   -2014921.6    82730.645   -1932190.9    4966676.4 
   34200         8.55    1308.2448    449101.77   -2013618.1    83621.717   -1929996.4    4961658.8 
   34300        8.575    1324.0531    451342.38     -2012472    84632.166   -1927839.9    4956641.2 
   34400          8.6    1338.3785    455140.06   -2011210.3    85547.832   -1925662.4    4951623.6 
   34500        8.625    1351.9243     457786.9   -2009844.6    86413.665   -1923430.9      4946606 
   34600         8.65    1366.1379    462218.37     -2008522    87322.183   -1921199.9    4941588.4 
   34700        8.675     1377.331    466601.75     -2007066    88037.636   -1919028.3    4936570.7 
   34800          8.7    1388.3528    470197.96   -2005633.4    88742.142   -1916891.2    4931553.1 
   34900        8.725    1401.3689     473915.5   -2004305.3    89574.118   -1914731.2    4926535.5 
   35000         8.75    1414.7434    477053.75   -2002952.2        90429   -1912523.2    4921517.9 
   35100        8.775    1430.7336    480984.58   -2001718.6    91451.081   -1910267.5    4916500.3 
   35200          8.8    1449.4738    484016.95   -2000593.1    92648.935   -1907944.2    4911482.7 
   35300        8.825    1468.5645    487131.07   -1999351.3    93869.192   -1905482.1      4906465 
   35400         8.85    1491.7606    490402.36     -1998171    95351.862   -1902819.2    4901447.4 
   35500        8.875    1519.2626    493400.25   -1997083.7    97109.764     -1899974    4896429.8 
   35600          8.9     1548.132    496047.65   -1995987.6     98955.07   -1897032.5    4891412.2 
   35700        8.925    1572.4635    500215.55   -1994616.9    100510.31   -1894106.6    4886394.6 
   35800         8.95    1596.8142    503011.35     -1993353    102066.79   -1891286.2      4881377 
   35900        8.975    1615.6433    505990.26   -1991849.1    103270.32   -1888578.8    4876359.4 
   36000            9    1635.2909    508538.65   -1990448.6    104526.18   -1885922.4    4871341.7 
   36100        9.025    1655.4995    512159.21   -1989047.6    105817.89   -1883229.8    4866324.1 
   36200         9.05     1674.222    514197.09   -1987495.8    107014.62   -1880481.2    4861306.5 
   36300        9.075    1693.7545    518522.12   -1986035.6    108263.11   -1877772.5    4856288.9 
   36400          9.1    1711.1096     520570.1   -1984585.9    109372.43   -1875213.5    4851271.3 
   36500        9.125     1723.828    524342.17   -1982997.6    110185.38   -1872812.2    4846253.7 
   36600         9.15    1735.7762    528752.77   -1981463.4     110949.1   -1870514.3      4841236 
   36700        9.175    1749.1676    529559.62   -1980054.5    111805.07   -1868249.5    4836218.4 
   36800          9.2    1759.5623    534145.54   -1978470.8    112469.48   -1866001.3    4831200.8 
   36900        9.225    1767.3666    536999.81     -1976786    112968.33   -1863817.7    4826183.2 
   37000         9.25    1774.2904    541160.08   -1975165.4    113410.89   -1861754.5    4821165.6 
   37100        9.275    1779.6045    545258.87     -1973540    113750.56   -1859789.5      4816148 
   37200          9.3    1785.3178    548411.79   -1971957.7    114115.75     -1857842    4811130.4 
   37300        9.325    1793.9968    551284.54     -1970538    114670.51   -1855867.5    4806112.7 
   37400         9.35    1799.3088    554319.84   -1968915.6    115010.04   -1853905.6    4801095.1 
   37500        9.375    1809.2338    557439.48     -1967627    115644.43   -1851982.6    4796077.5 
   37600          9.4    1815.3367    561488.83     -1966045    116034.53   -1850010.4    4791059.9 
   37700        9.425    1825.5145     564152.8   -1964571.9    116685.08   -1847886.8    4786042.3 
   37800         9.45    1838.1014    568595.26   -1963102.5    117489.63   -1845612.8    4781024.7 
   37900        9.475     1848.587    571414.49   -1961464.1    118159.86   -1843304.3      4776007 
   38000          9.5    1857.9295    575541.72   -1959811.7    118757.02   -1841054.7    4770989.4 
   38100        9.525    1868.5037    579116.29   -1958276.6    119432.91   -1838843.7    4765971.8 
   38200         9.55    1881.1325    581494.03   -1956857.6    120240.13   -1836617.5    4760954.2 
   38300        9.575    1892.8419    584611.98     -1955353    120988.59   -1834364.5    4755936.6 
   38400          9.6    1905.5796    587833.85   -1953890.9    121802.77   -1832088.1      4750919 
   38500        9.625    1921.8275    591791.67   -1952598.7    122841.32   -1829757.4    4745901.4 
   38600         9.65    1935.4171    595119.12   -1951076.6    123709.95   -1827366.6    4740883.7 
   38700        9.675    1952.9872    598277.13   -1949824.8    124833.02   -1824991.8    4735866.1 
   38800          9.7    1965.9515    600195.82   -1948366.7    125661.68     -1822705    4730848.5 
   38900        9.725    1979.1283    603545.11   -1946993.4    126503.93   -1820489.5    4725830.9 
   39000         9.75    1992.8895    605469.68   -1945685.4    127383.53   -1818301.9    4720813.3 
   39100        9.775    2006.6748    607384.37   -1944426.1    128264.67   -1816161.4    4715795.7 
   39200          9.8    2016.6112     610498.5   -1942989.1    128899.79   -1814089.3    4710778.1 
   39300        9.825    2028.9742    613129.16   -1941762.6    129690.03   -1812072.6    4705760.4 
   39400         9.85    2038.7509    615360.46   -1940411.7    130314.95   -1810096.7    4700742.8 
   39500        9.875    2045.9357    618044.11   -1938963.5    130774.19   -1808189.3    4695725.2 
   39600          9.9    2056.1352    620309.56     -1937808    131426.13   -1806381.9    4690707.6 
   39700        9.925    2061.3756    624837.25   -1936424.7    131761.09   -1804663.6      4685690 
   39800         9.95    2069.2373     627228.3   -1935264.1     132263.6   -1803000.5    4680672.4 
   39900        9.975    2075.0357    631559.11   -1934026.8    132634.23   -1801392.6    4675654.7 
   40000           10    2079.3474    636865.79   -1932739.8    132909.83     -1799830    4670637.1 
   40100       10.025    2083.3128    641393.29   -1931448.6     133163.3   -1798285.3    4665619.5 
   40200        10.05    2088.1188    646687.65   -1930221.1    133470.49   -1796750.7    4660601.9 
   40300       10.075    2087.4304     651752.9   -1928625.2    133426.49   -1795198.8    4655584.3 
   40400         10.1    2089.1105     657198.4   -1927113.8    133533.88   -1793579.9    4650566.7 
   40500       10.125    2091.8931    661943.87   -1925581.6    133711.74   -1791869.8    4645549.1 
   40600        10.15    2094.6806    669423.24   -1923991.9    133889.91     -1790102    4640531.4 
   40700       10.175    2092.6907    678192.76   -1922072.9    133762.72   -1788310.2    4635513.8 
   40800         10.2    2093.7828    687470.26   -1920295.8    133832.53   -1786463.3    4630496.2 
   40900       10.225    2096.5064    696233.51   -1918501.5    134006.62   -1784494.9    4625478.6 
   41000        10.25      2096.89    705096.77   -1916414.7    134031.14   -1782383.5      4620461 
   41100       10.275    2101.6629    714866.47   -1914515.8    134336.22   -1780179.6    4615443.4 
   41200         10.3    2104.2334    726023.88   -1912470.5    134500.52     -1777970    4610425.7 
   41300       10.325    2103.6507     735964.6   -1910264.9    134463.27   -1775801.6    4605408.1 
   41400        10.35    2101.8927    745357.55   -1908018.7    134350.91   -1773667.8    4600390.5 
   41500       10.375    2094.8574    752248.97   -1905429.1    133901.21   -1771527.9    4595372.9 
   41600         10.4    2092.6882    761441.86   -1903083.1    133762.57   -1769320.6    4590355.3 
   41700       10.425    2087.4585    769384.45   -1900449.6    133428.28   -1767021.3    4585337.7 
   41800        10.45    2081.6822    776565.69   -1897753.4    133059.07   -1764694.4    4580320.1 
   41900       10.475    2074.5447    782878.39   -1895019.5    132602.85   -1762416.6    4575302.4 
   42000         10.5    2065.2165    788887.48   -1892171.8     132006.6   -1760165.2    4570284.8 
   42100       10.525    2057.0841    793035.39   -1889360.5    131486.78   -1757873.7    4565267.2 
   42200        10.55    2048.0464    798175.64   -1886438.9     130909.1   -1755529.8    4560249.6 
   42300       10.575    2038.9324    802819.48   -1883498.1    130326.55   -1753171.5      4555232 
   42400         10.6    2029.2312    806692.69   -1880515.4    129706.45     -1750809    4550214.4 
   42500       10.625    2017.9326    809373.74   -1877361.8    128984.26   -1748377.5    4545196.7 
   42600        10.65    2009.3708    811572.87   -1874248.1       128437   -1745811.1    4540179.1 
   42700       10.675    2002.3554    815390.14   -1871113.9    127988.58   -1743125.3    4535161.5 
   42800         10.7    1995.0516    818094.99   -1867933.2    127521.73   -1740411.5    4530143.9 
   42900       10.725    1983.4285     819162.8   -1864544.3    126778.79   -1737765.5    4525126.3 
   43000        10.75    1973.7081    823139.36   -1861380.6    126157.48   -1735223.1    4520108.7 
   43100       10.775    1957.4937    826102.24   -1857880.6    125121.07   -1732759.5    4515091.1 
   43200         10.8    1945.2457    828073.13   -1854664.9    124338.19   -1730326.7    4510073.4 
   43300       10.825     1932.252    833436.32     -1851382    123507.64   -1727874.4    4505055.8 
   43400        10.85    1920.0266    836821.13   -1848106.6     122726.2   -1725380.4    4500038.2 
   43500       10.875    1908.0451    841096.74     -1844820    121960.36   -1722859.7    4495020.6 
   43600         10.9    1897.5043    845927.69   -1841630.7     121286.6   -1720344.1      4490003 
   43700       10.925    1887.5825    851675.86   -1838532.7    120652.41   -1717880.3    4484985.4 
   43800        10.95    1877.3855    857396.66     -1835500    120000.62   -1715499.4    4479967.7 
   43900       10.975    1865.9535    863633.32   -1832435.9    119269.91     -1713166    4474950.1 
   44000           11    1857.0991    867968.23     -1829474    118703.94   -1710770.1    4469932.5 
   44100       11.025    1850.0481    873934.05     -1826509    118253.25   -1708255.8    4464914.9 
   44200        11.05    1845.3081     880414.1   -1823637.2    117950.27   -1705686.9    4459897.3 
   44300       11.075    1838.2992    889146.37   -1820682.2    117502.27   -1703179.9    4454879.7 
   44400         11.1    1831.4127    895942.37   -1817835.9    117062.09   -1700773.8    4449862.1 
   44500       11.125    1822.6761    901189.67   -1814918.2    116503.66   -1698414.5    4444844.4 
   44600        11.15    1817.0681    906228.47   -1812206.1     116145.2   -1696060.9    4439826.8 
   44700       11.175    1811.0839    912425.35   -1809482.7    115762.69     -1693720    4434809.2 
   44800         11.2    1802.5728    917364.83   -1806649.8    115218.67   -1691431.2    4429791.6 
   44900       11.225    1796.5262    924243.53   -1804042.5    114832.18   -1689210.3      4424774 
   45000        11.25    1788.5792    927543.26   -1801348.9    114324.22   -1687024.7    4419756.4 
   45100       11.275    1780.3958     931622.4   -1798645.1    113801.14     -1684844    4414738.8 
   45200         11.3    1772.7076    934957.94   -1795976.9    113309.72   -1682667.1    4409721.1 
   45300       11.325    1762.6329    940301.86   -1793169.2    112665.75   -1680503.4    4404703.5 
   45400        11.35    1755.6585    943285.87   -1790571.7    112219.96   -1678351.8    4399685.9 
   45500       11.375    1746.0894    948833.05   -1787804.6    111608.31   -1676196.3    4394668.3 
   45600         11.4    1738.5024    951791.01   -1785134.9    111123.36   -1674011.6    4389650.7 
   45700       11.425    1729.4357    955238.87   -1782310.2    110543.82   -1671766.4    4384633.1 
   45800        11.45    1721.2162    957129.88     -1779503    110018.44   -1669484.6    4379615.4 
   45900       11.475    1710.6536    961361.97   -1776563.5    109343.29   -1667220.2    4374597.8 
   46000         11.5    1699.6445    964810.48   -1773629.5     108639.6   -1664989.9    4369580.2 
   46100       11.525    1689.1391    967459.17   -1770732.9     107968.1   -1662764.8    4364562.6 
   46200        11.55    1675.2169     968882.6   -1767627.7    107078.21   -1660549.5      4359545 
   46300       11.575    1660.5712    972143.14   -1764501.5    106142.07   -1658359.4    4354527.4 
   46400         11.6    1648.4038    974000.32   -1761535.1    105364.34   -1656170.8    4349509.8 
   46500       11.625    1633.8047    978335.23   -1758386.7    104431.18   -1653955.5    4344492.1 
   46600        11.65     1618.931    982529.32   -1755223.6    103480.47   -1651743.2    4339474.5 
   46700       11.675    1603.9235    985520.17   -1752112.7     102521.2   -1649591.5    4334456.9 
   46800         11.7    1585.1476    988896.08   -1748812.2    101321.07   -1647491.1    4329439.3 
   46900       11.725     1569.234    993037.03     -1745709    100303.89   -1645405.1    4324421.7 
   47000        11.75    1554.8798     997726.7   -1742703.4    99386.382     -1643317    4319404.1 
   47100       11.775    1536.5992    1002275.9   -1739473.2    98217.901   -1641255.3    4314386.4 
   47200         11.8    1520.3586    1006298.4     -1736386    97179.823   -1639206.2    4309368.8 
   47300       11.825    1503.1729    1013032.4   -1733198.6    96081.327   -1637117.2    4304351.2 
   47400        11.85    1487.1369    1018430.1   -1730033.8    95056.323   -1634977.5    4299333.6 
   47500       11.875     1472.307    1020741.7   -1726920.5    94108.407   -1632812.1      4294316 
   47600         11.9    1457.4049      1029426   -1723781.4    93155.881   -1630625.5    4289298.4 
   47700       11.925    1444.8598    1033312.6   -1720766.9     92354.01   -1628412.9    4284280.8 
   47800        11.95    1428.0718    1039084.4     -1717486    91280.938   -1626205.1    4279263.1 
   47900       11.975    1413.6028    1044955.1   -1714389.8    90356.096   -1624033.7    4274245.5 
   48000           12    1399.7478    1049000.5   -1711356.7    89470.499   -1621886.2    4269227.9 
   48100       12.025    1383.1573    1053595.2   -1708150.7    88410.048   -1619740.7    4264210.3 
   48200        12.05    1369.2823    1058061.7   -1705128.5     87523.17   -1617605.3    4259192.7 
   48300       12.075    1350.8537    1062763.8   -1701848.3    86345.234   -1615503.1    4254175.1 
   48400         12.1    1335.7657    1066363.8   -1698803.9    85380.824     -1613423    4249157.4 
   48500       12.125    1325.3376    1070536.2   -1696046.5     84714.27   -1611332.2    4244139.8 
   48600        12.15    1307.5067    1074053.1   -1692808.4     83574.54   -1609233.9    4239122.2 
   48700       12.175     1293.138    1076562.9   -1689805.7    82656.106   -1607149.6    4234104.6 
   48800         12.2    1279.3927    1081338.6   -1686841.7    81777.517   -1605064.2      4229087 
   48900       12.225     1266.322    1085508.9   -1683855.1    80942.052   -1602913.1    4224069.4 
   49000        12.25    1255.3869    1088622.8   -1680865.6    80243.089   -1600622.5    4219051.8 
   49100       12.275    1248.1448    1093117.7   -1677920.9    79780.184   -1598140.7    4214034.1 
   49200         12.3    1240.7888    1095702.7   -1674756.3    79309.996   -1595446.3    4209016.5 
   49300       12.325    1239.3968    1099133.4   -1671764.8    79221.018   -1592543.8    4203998.9 
   49400        12.35     1237.839    1103991.6   -1668610.8    79121.448   -1589489.4    4198981.3 
   49500       12.375    1237.8123    1109084.5   -1665451.9    79119.742   -1586332.2    4193963.7 
   49600         12.4    1239.9655    1115835.4   -1662370.7    79257.372   -1583113.3    4188946.1 
   49700       12.425    1239.1835    1121752.8   -1659066.4    79207.386     -1579859    4183928.4 
   49800        12.45    1239.4599      1125501   -1655784.2    79225.052   -1576559.1    4178910.8 
   49900       12.475    1242.3934    1131511.4   -1652591.6    79412.559     -1573179    4173893.2 
   50000         12.5    1243.8047    1138706.9   -1649155.1    79502.771   -1569652.3    4168875.6 
Loop time of 4471.5 on 96 procs for 50000 steps with 494500 atoms

Performance: 0.242 ns/day, 99.367 hours/ns, 11.182 timesteps/s
100.0% CPU use with 96 MPI tasks x 1 OpenMP threads

MPI task timing breakdown:
Section |  min time  |  avg time  |  max time  |%varavg| %total
---------------------------------------------------------------
Pair    | 901.61     | 1555.6     | 4351.3     |2593.7 | 34.79
Neigh   | 8.9815     | 13.275     | 21.915     | 100.6 |  0.30
Comm    | 27.946     | 583.55     | 3042.1     |3846.2 | 13.05
Output  | 10.669     | 10.671     | 10.756     |   0.3 |  0.24
Modify  | 31.649     | 2303.7     | 3228.4     |2709.8 | 51.52
Other   |            | 4.769      |            |       |  0.11

Nlocal:        5151.04 ave        6488 max        4049 min
Histogram: 9 4 11 15 25 15 5 0 0 12
Nghost:        11732.3 ave       14438 max       10191 min
Histogram: 8 12 28 22 14 0 0 0 0 12
Neighs:         0.00000 ave           0 max           0 min
Histogram: 96 0 0 0 0 0 0 0 0 0
FullNghs:  1.32143e+06 ave 1.72979e+06 max      947459 min
Histogram: 12 0 19 17 0 13 11 10 4 10

Total # of neighbors = 1.2685729e+08
Ave neighs/atom = 256.53649
Neighbor list builds = 452
Dangerous builds = 0
Total wall time: 1:14:36
