LAMMPS (29 Sep 2021)
  using 1 OpenMP thread(s) per MPI task
Reading data file ...
  orthogonal box = (0.60786045 0.61968883 0.0000000) to (100.63922 100.62740 541.67200)
  3 by 2 by 16 MPI processor grid
  reading atoms ...
  437300 atoms
  reading velocities ...
  437300 velocities
  read_data CPU = 4.329 seconds
218650 atoms in group g_left
218650 atoms in group g_right

CITE-CITE-CITE-CITE-CITE-CITE-CITE-CITE-CITE-CITE-CITE-CITE-CITE

Your simulation uses code contributions which should be cited:
- @article{cjiang2012
The log file lists these citations in BibTeX format.

CITE-CITE-CITE-CITE-CITE-CITE-CITE-CITE-CITE-CITE-CITE-CITE-CITE

Neighbor list info ...
  update every 1 steps, delay 10 steps, check yes
  max neighbors/atom: 2000, page size: 100000
  master list distance cutoff = 8.28721
  ghost atom cutoff = 8.28721
  binsize = 4.143605, bins = 25 25 131
  3 neighbor lists, perpetual/occasional/extra = 3 0 0
  (1) pair eam/alloy, perpetual, skip from (3)
      attributes: half, newton on
      pair build: skip
      stencil: none
      bin: none
  (2) pair edip/multi, perpetual
      attributes: full, newton on
      pair build: full/bin/atomonly
      stencil: full/bin/3d
      bin: standard
  (3) neighbor class addition, perpetual, half/full from (2)
      attributes: half, newton on
      pair build: halffull/newton
      stencil: none
      bin: none
Setting up Verlet run ...
  Unit style    : metal
  Current step  : 0
  Time step     : 0.00025
Per MPI rank memory allocation (min/avg/max) = 10.07 | 12.34 | 14.51 Mbytes
Step Time Temp Press PotEng KinEng TotEng Volume 
       0            0    7901.8832    84658.693   -2025958.9    446656.57   -1579302.3    5418836.5 
     100        0.025    7901.2201    85017.693   -2025991.8    446619.09   -1579372.7    5408832.6 
     200         0.05    7901.1307    84900.299   -2025991.6    446614.03   -1579377.6    5398828.6 
     300        0.075    7901.2376    85032.218     -2025967    446620.08     -1579347    5388824.7 
     400          0.1     7900.838     85357.69   -2025949.8    446597.49   -1579352.3    5378820.8 
     500        0.125    7900.7792    85345.021   -2025983.4    446594.17   -1579389.2    5368816.9 
     600         0.15    7900.4515    85478.684   -2025977.4    446575.64   -1579401.7      5358813 
     700        0.175    7900.6301    85387.613   -2025967.4    446585.74   -1579381.7    5348809.1 
     800          0.2    7900.9939     85798.55   -2025980.2     446606.3   -1579373.9    5338805.2 
     900        0.225      7900.37    85739.658   -2025965.5    446571.04   -1579394.5    5328801.3 
    1000         0.25    7900.3426    86055.819   -2025975.9    446569.49   -1579406.4    5318797.4 
    1100        0.275    7900.3858    86469.612   -2025967.8    446571.93   -1579395.8    5308793.5 
    1200          0.3    7901.1032    86584.074   -2026011.9    446612.49   -1579399.4    5298789.6 
    1300        0.325    7899.8106    86390.871   -2025970.5    446539.42   -1579431.1    5288785.7 
    1400         0.35     7899.422     86891.72   -2025968.2    446517.45   -1579450.8    5278781.8 
    1500        0.375    7899.9206    87096.193   -2025980.6    446545.64     -1579435    5268777.9 
    1600          0.4    7899.8482    87146.096   -2025956.8    446541.55   -1579415.3    5258773.9 
    1700        0.425    7900.4755    87380.655   -2025996.2       446577   -1579419.2      5248770 
    1800         0.45    7899.7588    87460.278   -2025957.1    446536.49   -1579420.6    5238766.1 
    1900        0.475    7900.9557    87611.215   -2026002.5    446604.15   -1579398.4    5228762.2 
    2000          0.5    7900.9864    88058.197   -2025984.7    446605.88   -1579378.8    5218758.3 
    2100        0.525    7901.0084    88142.857     -2025983    446607.12   -1579375.9    5208754.4 
    2200         0.55    7900.7433     87696.91   -2025962.2    446592.14     -1579370    5198750.5 
    2300        0.575     7901.284    88396.111   -2025971.7     446622.7     -1579349    5188746.6 
    2400          0.6    7902.2467    88317.786   -2026003.6    446677.12   -1579326.5    5178742.7 
    2500        0.625    7903.4622    88716.611   -2026062.5    446745.83   -1579316.6    5168738.8 
    2600         0.65    7899.0637    91733.588   -2025805.5     446497.2   -1579308.3    5158734.9 
    2700        0.675    7866.2664    102959.85   -2023927.3    444643.32   -1579283.9      5148731 
    2800          0.7    7778.8127    124719.07   -2018957.5    439699.97   -1579257.5    5138727.1 
    2900        0.725    7658.1225    151429.81   -2012137.4    432877.92   -1579259.5    5128723.2 
    3000         0.75    7538.4235    175447.91   -2005395.1    426111.89   -1579283.2    5118719.2 
    3100        0.775    7424.2854    196569.72   -1998958.6     419660.2   -1579298.4    5108715.3 
    3200          0.8    7318.3725    212747.53   -1992965.5    413673.44   -1579292.1    5098711.4 
    3300        0.825    7227.4556    223414.46   -1987817.2    408534.33   -1579282.8    5088707.5 
    3400         0.85    7158.4885    225355.19   -1983918.2    404635.94   -1579282.3    5078703.6 
    3500        0.875    7115.2117    221841.13   -1981466.1     402189.7   -1579276.4    5068699.7 
    3600          0.9    7094.1348    216784.28   -1980268.5    400998.33   -1579270.2    5058695.8 
    3700        0.925    7080.9059    212345.83     -1979530    400250.56   -1579279.5    5048691.9 
    3800         0.95    7079.0662    206473.34   -1979440.2    400146.57   -1579293.6      5038688 
    3900        0.975    7080.3662    202752.28   -1979510.1    400220.05   -1579290.1    5028684.1 
    4000            1    7081.5208    195466.08   -1979550.3    400285.32     -1579265    5018680.2 
    4100        1.025    7083.2379    191732.34   -1979627.1    400382.38   -1579244.8    5008676.3 
    4200         1.05    7077.7059     187101.3   -1979323.6    400069.67   -1579253.9    4998672.4 
    4300        1.075    7071.8644    184186.33   -1979010.4    399739.49   -1579270.9    4988668.5 
    4400          1.1    7059.1183    179945.99   -1978283.8    399019.01   -1579264.8    4978664.5 
    4500        1.125    7043.6438    177216.21   -1977391.1     398144.3   -1579246.8    4968660.6 
    4600         1.15    7022.3571    175634.83   -1976175.6    396941.07   -1579234.5    4958656.7 
    4700        1.175     7001.041     175216.4   -1974957.7    395736.17   -1579221.5    4948652.8 
    4800          1.2    6976.7447    173286.89   -1973557.5    394362.81   -1579194.7    4938648.9 
    4900        1.225    6938.9086     172488.5     -1971394    392224.11   -1579169.9      4928645 
    5000         1.25    6874.8199    174793.77   -1967770.9    388601.48   -1579169.5    4918641.1 
    5100        1.275    6801.9777    178304.43   -1963681.1    384484.05   -1579197.1    4908637.2 
    5200          1.3    6727.8392    183224.55   -1959516.2    380293.34   -1579222.9    4898633.3 
    5300        1.325    6660.6055    187287.08   -1955712.3    376492.94   -1579219.4    4888629.4 
    5400         1.35    6594.3323    191182.42   -1951958.2    372746.82   -1579211.4    4878625.5 
    5500        1.375    6539.1524    195622.17   -1948846.2    369627.76   -1579218.4    4868621.6 
    5600          1.4    6484.6529    200572.94   -1945779.4    366547.16   -1579232.2    4858617.7 
    5700        1.425     6433.058    207108.83   -1942864.6    363630.74   -1579233.8    4848613.7 
    5800         1.45    6384.5898    214750.14   -1940113.8    360891.06   -1579222.8    4838609.8 
    5900        1.475    6339.3331    222899.98   -1937553.5    358332.91   -1579220.6    4828605.9 
    6000          1.5    6295.3348    230155.56   -1935064.4    355845.89   -1579218.5      4818602 
    6100        1.525    6259.4734    236496.36   -1933027.5    353818.81   -1579208.7    4808598.1 
    6200         1.55    6227.1273    245690.39   -1931194.9    351990.44   -1579204.5    4798594.2 
    6300        1.575    6195.7648    254254.31   -1929440.1    350217.66   -1579222.5    4788590.3 
    6400          1.6    6165.4338    260775.26   -1927752.1    348503.19   -1579248.9    4778586.4 
    6500        1.625    6136.2838    268493.37     -1926110    346855.48   -1579254.5    4768582.5 
    6600         1.65    6105.1482    277001.36   -1924336.1    345095.53   -1579240.6    4758578.6 
    6700        1.675    6069.1241    285236.13   -1922293.1    343059.26   -1579233.8    4748574.7 
    6800          1.7    6033.3722    295116.48   -1920274.8    341038.37   -1579236.5    4738570.8 
    6900        1.725    5992.6698    303800.19     -1917957    338737.65   -1579219.4    4728566.9 
    7000         1.75    5947.5066    313270.06     -1915358    336184.79   -1579173.2      4718563 
    7100        1.775    5903.3301    322726.07     -1912827     333687.7   -1579139.3      4708559 
    7200          1.8     5852.967    331891.42   -1909992.4     330840.9   -1579151.5    4698555.1 
    7300        1.825    5801.5666    341204.11   -1907117.7    327935.48   -1579182.2    4688551.2 
    7400         1.85    5750.2478    348294.95   -1904230.4    325034.67   -1579195.8    4678547.3 
    7500        1.875    5697.6847    357112.57     -1901253    322063.52   -1579189.4    4668543.4 
    7600          1.9     5643.739    362374.95   -1898199.3    319014.22   -1579185.1    4658539.5 
    7700        1.925    5589.9511     367470.8   -1895162.9    315973.84   -1579189.1    4648535.6 
    7800         1.95    5538.6147     372412.6   -1892250.1    313072.04     -1579178    4638531.7 
    7900        1.975    5487.8263    377245.08   -1889355.7    310201.21   -1579154.5    4628527.8 
    8000            2    5434.9442    381535.06   -1886360.2    307212.03   -1579148.2    4618523.9 
    8100        2.025    5384.1038    384549.59     -1883508    304338.26   -1579169.7      4608520 
    8200         2.05     5334.225    390420.15   -1880718.6    301518.84   -1579199.8    4598516.1 
    8300        2.075    5279.6998    393015.93   -1877660.6    298436.78   -1579223.8    4588512.2 
    8400          2.1    5227.4976    397452.61   -1874729.9    295486.04   -1579243.8    4578508.3 
    8500        2.125    5216.0299    397595.79   -1874103.6    294837.82   -1579265.8    4568504.3 
    8600         2.15    5199.9019     398052.8   -1873210.5    293926.18   -1579284.4    4558500.4 
    8700        2.175    5133.1021    398246.84     -1869444     290150.3   -1579293.7    4548496.5 
    8800          2.2    5103.3549    401287.52   -1867769.3    288468.83   -1579300.5    4538492.6 
    8900        2.225    5098.0282    400832.63   -1867467.9    288167.74   -1579300.2    4528488.7 
    9000         2.25    5057.0353    404868.84     -1865142     285850.6   -1579291.4    4518484.8 
    9100        2.275    5022.1971    409105.87   -1863168.2    283881.36   -1579286.8    4508480.9 
    9200          2.3     5003.212     410338.6   -1862105.6    282808.22   -1579297.4      4498477 
    9300        2.325    4952.4758    411896.72   -1859258.4    279940.34     -1579318    4488473.1 
    9400         2.35    4925.7806    415045.81   -1857760.5    278431.39   -1579329.1    4478469.2 
    9500        2.375    4903.6586    419577.63   -1856510.8    277180.93   -1579329.8    4468465.3 
    9600          2.4    4859.3113    423547.56   -1854008.3    274674.19   -1579334.1    4458461.4 
    9700        2.425    4848.1079    426017.85   -1853394.2    274040.91   -1579353.3    4448457.5 
    9800         2.45    4817.6937    429913.63   -1851692.9    272321.74   -1579371.2    4438453.6 
    9900        2.475    4784.0066    436382.02   -1849786.5    270417.56   -1579368.9    4428449.6 
   10000          2.5    4764.5405    438473.52   -1848665.6    269317.24   -1579348.3    4418445.7 
   10100        2.525    4722.4188    442891.64   -1846264.3    266936.29   -1579328.1    4408441.8 
   10200         2.55    4691.8643    447781.55   -1844526.3    265209.19   -1579317.1    4398437.9 
   10300        2.575    4666.5989    454154.28   -1843092.7    263781.05   -1579311.7      4388434 
   10400          2.6     4633.113    459234.01   -1841204.4    261888.25   -1579316.2    4378430.1 
   10500        2.625    4606.7766    465433.24   -1839717.8    260399.58   -1579318.2    4368426.2 
   10600         2.65    4575.2424     467205.7   -1837922.3     258617.1   -1579305.2    4358422.3 
   10700        2.675    4548.7153    474970.91   -1836395.4    257117.64   -1579277.8    4348418.4 
   10800          2.7    4510.1259     480246.6   -1834202.5    254936.37   -1579266.2    4338414.5 
   10900        2.725    4481.0676    485847.24   -1832574.9    253293.84   -1579281.1    4328410.6 
   11000         2.75    4439.4983     490988.4   -1830239.8    250944.12   -1579295.6    4318406.7 
   11100        2.775    4396.8281    496993.72   -1827831.6    248532.17   -1579299.4    4308402.8 
   11200          2.8    4350.9942    505357.97   -1825240.9    245941.39   -1579299.5    4298398.8 
   11300        2.825    4305.8243    511248.31   -1822695.1    243388.15   -1579306.9    4288394.9 
   11400         2.85    4260.2358    517807.67   -1820124.5    240811.24   -1579313.3      4278391 
   11500        2.875     4217.367    525608.74   -1817696.4    238388.07   -1579308.3    4268387.1 
   11600          2.9    4175.0729     529903.8   -1815307.1    235997.38   -1579309.7    4258383.2 
   11700        2.925     4127.798    534277.94   -1812657.9    233325.15   -1579332.8    4248379.3 
   11800         2.95    4084.0711    540232.34   -1810208.5    230853.48     -1579355    4238375.4 
   11900        2.975    4041.6992    546073.11   -1807809.9    228458.39   -1579351.5    4228371.5 
   12000            3    3993.2744    550014.37   -1805055.5    225721.16   -1579334.3    4218367.6 
   12100        3.025    3941.4972    555681.05   -1802127.2    222794.44   -1579332.8    4208363.7 
   12200         3.05    3893.4067       561464   -1799416.8    220076.11   -1579340.7    4198359.8 
   12300        3.075     3837.758    568028.09   -1796269.5    216930.55     -1579339    4188355.9 
   12400          3.1    3779.2609    572732.65   -1792952.8    213623.98   -1579328.8      4178352 
   12500        3.125     3719.649    576691.17   -1789577.9    210254.39   -1579323.5    4168348.1 
   12600         3.15    3652.3638    585935.88   -1785781.8    206451.08   -1579330.7    4158344.1 
   12700        3.175    3585.2043    590715.44   -1781997.5    202654.86   -1579342.7    4148340.2 
   12800          3.2    3525.1511    598432.93   -1778602.1    199260.34   -1579341.8    4138336.3 
   12900        3.225    3458.8036    604601.47   -1774842.7    195510.02   -1579332.7    4128332.4 
   13000         3.25      3396.19    610290.03   -1771298.8    191970.77     -1579328    4118328.5 
   13100        3.275    3322.4894    619158.28   -1767137.4    187804.82   -1579332.6    4108324.6 
   13200          3.3    3259.7182    623491.62   -1763602.9    184256.65   -1579346.3    4098320.7 
   13300        3.325    3195.0728    630515.14   -1759966.2    180602.55   -1579363.6    4088316.8 
   13400         3.35    3134.6675    638836.02   -1756563.6    177188.12   -1579375.5    4078312.9 
   13500        3.375    3067.9692    643556.03   -1752803.3    173417.98   -1579385.3      4068309 
   13600          3.4    3004.7652    649513.29   -1749245.1    169845.35   -1579399.8    4058305.1 
   13700        3.425    2936.6244    655110.33   -1745417.3    165993.67   -1579423.6    4048301.2 
   13800         3.45    2878.4843    661755.07   -1742147.9    162707.28   -1579440.6    4038297.3 
   13900        3.475     2827.919    666418.27   -1739278.1    159849.06   -1579429.1    4028293.4 
   14000          3.5    2795.9683    672704.58   -1737449.6    158043.03   -1579406.6    4018289.4 
   14100        3.525    2755.6611    677044.03   -1735171.1    155764.66   -1579406.4    4008285.5 
   14200         3.55    2718.9814    682528.67   -1733121.7    153691.33   -1579430.4    3998281.6 
   14300        3.575    2714.6002    687638.76   -1732888.3    153443.68   -1579444.6    3988277.7 
   14400          3.6    2694.2495    693016.87   -1731732.7    152293.35   -1579439.4    3978273.8 
   14500        3.625    2683.8334    696786.68   -1731143.1    151704.57   -1579438.5    3968269.9 
   14600         3.65    2669.3722    701285.46   -1730340.8    150887.15   -1579453.7      3958266 
   14700        3.675    2656.0983    702406.64   -1729600.4    150136.84   -1579463.6    3948262.1 
   14800          3.7    2649.4375     706670.8   -1729218.2    149760.34   -1579457.8    3938258.2 
   14900        3.725     2627.554    708952.68   -1727983.1    148523.37   -1579459.7    3928254.3 
   15000         3.75    2626.2845    714448.09   -1727934.6    148451.61     -1579483    3918250.4 
   15100        3.775    2609.8516    718489.09   -1727017.8    147522.73     -1579495    3908246.5 
   15200          3.8    2606.4579    723797.07   -1726801.8     147330.9   -1579470.9    3898242.6 
   15300        3.825    2605.5346    727887.73     -1726719    147278.71   -1579440.2    3888238.6 
   15400         3.85    2597.2378       732681     -1726248    146809.73   -1579438.3    3878234.7 
   15500        3.875    2583.7543    738431.44   -1725508.8    146047.57   -1579461.3    3868230.8 
   15600          3.9    2555.7604    744351.35   -1723938.4     144465.2   -1579473.2    3858226.9 
   15700        3.925    2523.3156    755337.62   -1722089.2    142631.25     -1579458      3848223 
   15800         3.95    2489.4384    762970.84   -1720164.6    140716.33   -1579448.3    3838219.1 
   15900        3.975    2456.1829    769305.16   -1718291.1    138836.56   -1579454.6    3828215.2 
   16000            4    2410.6287     775055.9     -1715712    136261.59   -1579450.4    3818211.3 
   16100        4.025    2384.7753    783020.29   -1714235.5    134800.22   -1579435.3    3808207.4 
   16200         4.05    2337.9229    790515.18   -1711576.6    132151.87   -1579424.7    3798203.5 
   16300        4.075    2298.4375    798188.35   -1709348.4    129919.94   -1579428.4    3788199.6 
   16400          4.1    2258.4718    805660.75   -1707092.6    127660.87   -1579431.7    3778195.7 
   16500        4.125     2211.646    812861.04   -1704435.4    125014.02   -1579421.4    3768191.8 
   16600         4.15    2162.1203    822345.26   -1701621.6    122214.57     -1579407    3758187.9 
   16700        4.175    2112.1227    836118.14   -1698787.9    119388.44   -1579399.5    3748183.9 
   16800          4.2    2064.8484    841981.08   -1696106.2    116716.24     -1579390      3738180 
   16900        4.225    2009.9127    851278.42   -1692980.7    113610.98   -1579369.7    3728176.1 
   17000         4.25    1955.3719    861914.26   -1689866.8    110528.04   -1579338.8    3718172.2 
   17100        4.275    1899.3906    873701.55   -1686639.9    107363.68   -1579276.2    3708168.3 
   17200          4.3    1844.0129    881746.15   -1683365.5    104233.44     -1579132    3698164.4 
   17300        4.325    1782.8285    890176.63   -1679766.6    100774.97   -1578991.7    3688160.5 
   17400         4.35    1755.4862    906992.87   -1672785.6    99229.441   -1573556.2    3678156.6 
   17500        4.375    1915.3491    925323.32   -1660522.1    108265.75   -1552256.3    3668152.7 
   17600          4.4    2180.0991     951299.3   -1653552.9    123230.82   -1530322.1    3658148.8 
   17700        4.425    2140.4737    970484.44   -1640103.5    120990.98   -1519112.5    3648144.9 
   17800         4.45    2137.0481    990561.33   -1629961.6    120797.36   -1509164.2      3638141 
   17900        4.475    2220.0718    1012514.2   -1614646.3    125490.29     -1489156    3628137.1 
   18000          4.5    2419.4334    1041680.7   -1603824.1    136759.28   -1467064.9    3618133.2 
   18100        4.525     2410.877    1064527.4   -1587973.9    136275.62   -1451698.2    3608129.2 
   18200         4.55    2474.7832    1086383.8   -1576608.8    139887.94   -1436720.9    3598125.3 
   18300        4.575     2633.509    1107699.5   -1563225.1    148859.97   -1414365.1    3588121.4 
   18400          4.6    2904.7116    1126637.2   -1556072.6    164189.79   -1391882.8    3578117.5 
   18500        4.625    3044.7301    1132773.6   -1546604.7    172104.38   -1374500.3    3568113.6 
   18600         4.65    3200.0602    1140427.1   -1538313.2    180884.47   -1357428.7    3558109.7 
   18700        4.675    3453.0333    1149588.9   -1530280.4    195183.85   -1335096.6    3548105.8 
   18800          4.7    3728.7685    1162046.7   -1523571.4    210769.88   -1312801.6    3538101.9 
   18900        4.725    3882.5909    1174716.3     -1514502    219464.74   -1295037.3      3528098 
   19000         4.75    4001.2668    1193246.6     -1505117    226172.93     -1278944    3518094.1 
   19100        4.775    4082.4604    1207882.2   -1492367.3    230762.43   -1261604.8    3508090.2 
   19200          4.8    4105.3611    1228116.7   -1478985.7     232056.9   -1246928.8    3498086.3 
   19300        4.825    4029.1621    1247933.6   -1464594.3    227749.73   -1236844.5    3488082.4 
   19400         4.85    3934.8542    1269569.8   -1450570.9    222418.94   -1228151.9    3478078.5 
   19500        4.875    3836.8403    1292622.2   -1435959.3    216878.67   -1219080.6    3468074.5 
   19600          4.9    3756.8972    1310477.5   -1422697.3    212359.86   -1210337.4    3458070.6 
   19700        4.925    3697.9375    1331197.3   -1410917.1    209027.14     -1201890    3448066.7 
   19800         4.95    3703.5306    1351861.7   -1401301.8    209343.29   -1191958.5    3438062.8 
   19900        4.975    3770.8983    1370943.9     -1393495    213151.28   -1180343.7    3428058.9 
   20000            5    3847.6825      1389475     -1387117    217491.53   -1169625.4      3418055 
   20100        5.025    3902.5716    1406661.3   -1380459.8    220594.15   -1159865.7    3408051.1 
   20200         5.05    4011.4055    1426702.8   -1373676.3    226746.03   -1146930.2    3398047.2 
   20300        5.075    4199.7099    1448240.1   -1365381.1       237390   -1127991.1    3388043.3 
   20400          5.1    4441.0142    1471981.5   -1357294.8     251029.8     -1106265    3378039.4 
   20500        5.125    4634.9199    1493749.4   -1347501.6    261990.39   -1085511.2    3368035.5 
   20600         5.15    4795.4091    1515214.2   -1336644.2    271062.09   -1065582.1    3358031.6 
   20700        5.175    4963.6437    1537652.6   -1325336.3    280571.61   -1044764.6    3348027.7 
   20800          5.2    5168.7354    1558377.6   -1315715.7    292164.48   -1023551.2    3338023.7 
   20900        5.225    5406.2329    1570119.5   -1308097.2    305589.11   -1002508.1    3328019.8 
   21000         5.25    5660.1772    1577413.1     -1301046     319943.4   -981102.61    3318015.9 
   21100        5.275     5944.833    1589040.5   -1295237.9    336033.66   -959204.25      3308012 
   21200          5.3    6234.2006    1595665.1   -1290123.5    352390.26   -937733.22    3298008.1 
   21300        5.325    6518.7083      1607734   -1285218.5    368472.15   -916746.35    3288004.2 
   21400         5.35    6762.3407    1619316.3   -1278663.9    382243.56   -896420.35    3278000.3 
   21500        5.375     6944.272      1633807   -1269657.6    392527.28   -877130.31    3267996.4 
   21600          5.4     7064.949    1650157.8   -1258351.1    399348.59   -859002.47    3257992.5 
   21700        5.425    7145.7208    1673553.6   -1245631.7    403914.24   -841717.41    3247988.6 
   21800         5.45    7171.2272    1694251.1   -1231154.5       405356   -825798.49    3237984.7 
   21900        5.475    7191.8309    1719214.6   -1217562.9    406520.63   -811042.25    3227980.8 
   22000          5.5    7213.3419    1745122.7   -1204789.3    407736.54   -797052.72    3217976.9 
   22100        5.525    7233.7907      1767666   -1192376.8    408892.42   -783484.41      3207973 
   22200         5.55    7260.4205    1793390.9   -1180821.6    410397.68   -770423.95      3197969 
   22300        5.575    7288.3193    1819055.8   -1169626.9    411974.67   -757652.26    3187965.1 
   22400          5.6    7310.4585    1845911.6   -1157885.3     413226.1   -744659.16    3177961.2 
   22500        5.625    7336.0822    1872168.3   -1145793.9    414674.49   -731119.45    3167957.3 
   22600         5.65    7333.2964    1900537.9   -1131707.7    414517.01   -717190.72    3157953.4 
   22700        5.675    7330.1301      1930662   -1117442.1    414338.04   -703104.07    3147949.5 
   22800          5.7    7333.7598    1959477.2   -1103132.7    414543.21   -688589.45    3137945.6 
   22900        5.725    7352.5108    1989440.1   -1089334.3    415603.11    -673731.2    3127941.7 
   23000         5.75    7378.0749    2017936.1   -1075726.2    417048.14   -658678.02    3117937.8 
   23100        5.775    7403.5561    2046872.3   -1061738.2    418488.47   -643249.69    3107933.9 
   23200          5.8    7468.7783    2075639.2   -1049281.3    422175.17   -627106.12      3097930 
   23300        5.825    7591.5698    2096686.1   -1039709.8       429116   -610593.83    3087926.1 
   23400         5.85    7739.7217    2114841.7   -1031821.3    437490.34   -594330.92    3077922.2 
   23500        5.875    7884.0747      2126614   -1024600.5    445649.94   -578950.53    3067918.3 
   23600          5.9    8014.5445    2135079.1   -1017811.6    453024.79   -564786.83    3057914.3 
   23700        5.925    8126.9954    2141239.7   -1010954.8    459381.11   -551573.68    3047910.4 
   23800         5.95    8226.0602    2152671.9   -1004392.4    464980.78   -539411.59    3037906.5 
   23900        5.975    8283.0512    2174595.9   -996345.87    468202.22   -528143.65    3027902.6 
   24000            6    8308.7292    2202134.5   -987558.57    469653.68   -517904.89    3017898.7 
   24100        6.025    8324.0619    2235553.1   -978980.05    470520.36   -508459.69    3007894.8 
   24200         6.05    8338.9524    2272528.2   -970750.53    471362.05   -499388.48    2997890.9 
   24300        6.075    8375.8225    2303474.7   -964056.16    473446.15   -490610.02      2987887 
   24400          6.1    8421.8623    2341551.3      -957992    476048.57   -481943.43    2977883.1 
   24500        6.125    8470.1404    2379504.2   -951980.32     478777.5   -473202.82    2967879.2 
   24600         6.15    8513.5462    2420722.1   -945296.16    481231.03   -464065.13    2957875.3 
   24700        6.175    8531.0441    2455563.7    -936597.8     482220.1   -454377.69    2947871.4 
   24800          6.2    8531.3572    2498631.5   -925933.23     482237.8   -443695.42    2937867.5 
   24900        6.225    8528.2802    2538778.8   -913275.62    482063.87   -431211.75    2927863.6 
   25000         6.25    8542.6579    2578313.6   -899014.89    482876.58   -416138.31    2917859.6 
   25100        6.275    8586.7835    2625971.3   -883684.15    485370.79   -398313.36    2907855.7 
   25200          6.3    8630.8766    2661535.6   -867143.92    487863.17   -379280.75    2897851.8 
   25300        6.325    8654.8349    2701300.7    -849464.7    489217.42   -360247.28    2887847.9 
   25400         6.35    8661.6885    2741420.6   -831014.98    489604.82   -341410.16      2877844 
   25500        6.375    8645.9513    2781378.8   -810255.32    488715.27   -321540.05    2867840.1 
   25600          6.4    8654.6062    2821941.6   -790369.77    489204.49   -301165.28    2857836.2 
   25700        6.425    8640.5746    2860116.2   -768910.97    488411.35   -280499.63    2847832.3 
   25800         6.45    8632.8662    2906291.2   -747957.79    487975.63   -259982.16    2837828.4 
   25900        6.475    8631.6926    2944609.4   -727229.32    487909.29   -239320.03    2827824.5 
   26000          6.5     8620.657    2987757.4   -705485.51     487285.5      -218200    2817820.6 
   26100        6.525    8605.7165    3033364.4   -684043.91    486440.98   -197602.93    2807816.7 
   26200         6.55    8595.0188    3069167.2   -663108.65    485836.29   -177272.36    2797812.8 
   26300        6.575    8551.9372    3112787.2   -640849.76    483401.09   -157448.67    2787808.8 
   26400          6.6    8521.0459    3156109.4   -619454.39    481654.95   -137799.44    2777804.9 
   26500        6.625    8519.1355    3197622.6   -600469.72    481546.96   -118922.75      2767801 
   26600         6.65    8511.9507    3234562.5    -581786.8    481140.84   -100645.96    2757797.1 
   26700        6.675    8526.5698    3275858.3   -564233.26    481967.19   -82266.074    2747793.2 
   26800          6.7     8566.339    3313974.8   -548519.94    484215.16   -64304.781    2737789.3 
   26900        6.725    8628.4337    3355144.7   -534140.18    487725.08   -46415.101    2727785.4 
   27000         6.75    8681.1507      3384998   -518888.25    490704.93   -28183.323    2717781.5 
   27100        6.775    8742.0296      3419279   -504077.32    494146.13   -9931.1869    2707777.6 
   27200          6.8    8803.3529    3453276.1   -489171.13    497612.45     8441.318    2697773.7 
   27300        6.825    8879.0603    3486094.8   -474932.04    501891.83    26959.789    2687769.8 
   27400         6.85    8920.3003    3519245.2   -458670.43    504222.94    45552.512    2677765.9 
   27500        6.875    8984.1393    3549479.1   -443994.35    507831.46    63837.105      2667762 
   27600          6.9    9020.2552    3584246.7   -428247.98    509872.92    81624.945    2657758.1 
   27700        6.925    9021.0418    3611960.3   -410711.85    509917.38    99205.531    2647754.1 
   27800         6.95    9011.7953    3641282.3    -393567.9    509394.72    115826.82    2637750.2 
   27900        6.975    8948.3496    3675202.5   -373818.69    505808.43    131989.74    2627746.3 
   28000            7    8858.9617    3702370.8    -353438.2    500755.75    147317.55    2617742.4 
   28100        7.025    8711.7668    3744444.8   -330231.81    492435.51     162203.7    2607738.5 
   28200         7.05     8559.781    3776605.6   -307737.85    483844.47    176106.62    2597734.6 
   28300        7.075    8356.1926    3829101.5   -283040.69    472336.56    189295.87    2587730.7 
   28400          7.1    8148.4639      3862875   -258475.23    460594.63     202119.4    2577726.8 
   28500        7.125     7916.822    3909623.7   -233438.52       447501    214062.47    2567722.9 
   28600         7.15    7703.4799    3951716.3   -209659.25    435441.76     225782.5      2557719 
   28700        7.175    7474.3268    4004057.4    -185589.6    422488.81    236899.21    2547715.1 
   28800          7.2    7279.1056      4047578   -163459.38    411453.86    247994.48    2537711.2 
   28900        7.225    7079.8019    4083688.6   -141572.64    400188.16    258615.52    2527707.3 
   29000         7.25    6911.5435    4132626.9   -121055.08    390677.29    269622.21    2517703.4 
   29100        7.275    6775.8798    4175129.6   -102292.54    383008.85    280716.31    2507699.4 
   29200          7.3    6666.0502    4215550.1    -84236.02     376800.7    292564.68    2497695.5 
   29300        7.325    6608.1777    4248183.3   -68407.024    373529.44    305122.42    2487691.6 
   29400         7.35    6586.9199    4285447.8   -53162.983    372327.83    319164.85    2477687.7 
   29500        7.375    6589.6205    4331722.5   -38177.167    372480.49    334303.32    2467683.8 
   29600          7.4     6653.443    4391232.9   -25255.365    376088.08    350832.71    2457679.9 
   29700        7.425    6662.4371    4440508.2   -8494.7359    376596.47    368101.73      2447676 
   29800         7.45    6755.8879    4500292.3    4493.6358    381878.81    386372.44    2437672.1 
   29900        7.475    6776.1689      4566049    22433.474     383025.2    405458.67    2427668.2 
   30000          7.5    6808.9805    4637688.1    41259.546    384879.89    426139.43    2417664.3 
   30100        7.525    6870.2003    4712087.5    61473.855    388340.36    449814.21    2407660.4 
   30200         7.55    6906.2061    4783285.4    86391.093    390375.59    476766.69    2397656.5 
   30300        7.575    6974.7065    4873140.7    113630.48     394247.6    507878.08    2387652.6 
   30400          7.6    7071.8141    4947459.6    143247.23    399736.64    542983.87    2377648.7 
   30500        7.625    7189.2007    5041679.5    176002.77    406371.96    582374.73    2367644.7 
   30600         7.65    7340.0685    5125178.2    210435.49    414899.81    625335.29    2357640.8 
   30700        7.675    7549.1793    5210063.8    244657.33    426719.87    671377.19    2347636.9 
   30800          7.7    7742.5086    5290910.9    281477.85    437647.87    719125.72      2337633 
   30900        7.725    7982.2582      5382641    317096.37     451199.8    768296.17    2327629.1 
   31000         7.75    8236.1383    5468893.7    352790.52    465550.46    818340.97    2317625.2 
   31100        7.775    8489.0696    5562302.1    388812.84    479847.48    868660.32    2307621.3 
   31200          7.8    8764.9207    5656685.1    423688.43    495440.05    919128.48    2297617.4 
   31300        7.825    9025.8024    5755257.9    458248.15    510186.48    968434.63    2287613.5 
   31400         7.85    9326.4046    5850843.5    491293.65    527178.12    1018471.8    2277609.6 
   31500        7.875    9666.7363    5953231.6    522758.63    546415.48    1069174.1    2267605.7 
   31600          7.9        10016    6054866.2    554275.95    566157.74    1120433.7    2257601.8 
   31700        7.925    10391.905    6146312.3    584872.41    587405.87    1172278.3    2247597.9 
   31800         7.95    10750.353    6244202.3    616981.92     607667.3    1224649.2    2237593.9 
   31900        7.975    11087.319    6347080.6    650721.54     626714.4    1277435.9      2227590 
   32000            8    11403.522    6434326.2    685234.69    644587.88    1329822.6    2217586.1 
   32100        8.025    11632.609    6534565.5    724618.76     657537.1    1382155.9    2207582.2 
   32200         8.05    11828.326    6647120.9    765052.76    668600.03    1433652.8    2197578.3 
   32300        8.075    11951.641    6751472.3    809174.18    675570.47    1484744.7    2187574.4 
   32400          8.1    12033.857    6883277.4    854972.76    680217.74    1535190.5    2177570.5 
   32500        8.125    12114.866      6988586    899994.72     684796.8    1584791.5    2167566.6 
   32600         8.15    12191.817    7121853.7    945525.94    689146.53    1634672.5    2157562.7 
   32700        8.175    12228.372      7251503    991901.02    691212.81    1683113.8    2147558.8 
   32800          8.2    12302.195    7370467.2    1035974.7    695385.67    1731360.4    2137554.9 
   32900        8.225    12410.134    7490056.2    1077745.4    701486.94    1779232.4      2127551 
   33000         8.25    12541.561    7621316.8    1117053.7     708915.9    1825969.6    2117547.1 
   33100        8.275    12729.467    7749239.7    1153090.3    719537.38    1872627.7    2107543.2 
   33200          8.3    12981.588    7882889.4    1185722.9    733788.59    1919511.5    2097539.2 
   33300        8.325    13216.963    8038143.9    1219488.1     747093.2    1966581.3    2087535.3 
   33400         8.35    13487.906    8223031.1    1253263.2    762408.34    2015671.5    2077531.4 
   33500        8.375    13781.128    8416113.4    1288241.6    778982.86    2067224.4    2067527.5 
   33600          8.4    14013.183    8629762.4    1329840.1    792099.82      2121940    2057523.6 
   33700        8.425    14195.322    8853150.8    1376985.8    802395.29    2179381.1    2047519.7 
   33800         8.45    14370.071    9062100.7    1428601.7    812273.06    2240874.8    2037515.8 
   33900        8.475    14493.097      9268427    1485045.5    819227.11    2304272.6    2027511.9 
   34000          8.5    14602.522    9427107.6      1542954    825412.43    2368366.5      2017508 
   34100        8.525    14654.221    9602299.6    1604186.4    828334.69    2432521.1    2007504.1 
   34200         8.55    14692.477    9766205.6    1665779.8    830497.13    2496276.9    1997500.2 
   34300        8.575    14700.401      9932483    1728600.5    830945.05    2559545.6    1987496.3 
   34400          8.6     14732.25     10108545    1789486.7    832745.35    2622232.1    1977492.4 
   34500        8.625    14779.994     10304886    1849336.4    835444.06    2684780.5    1967488.5 
   34600         8.65    14879.484     10489714    1905620.6     841067.8    2746688.4    1957484.5 
   34700        8.675    14952.485     10663349    1963700.9     845194.2    2808895.1    1947480.6 
   34800          8.7     15052.84     10847243    2020836.7    850866.76    2871703.4    1937476.7 
   34900        8.725    15069.354     10992739    2081120.8    851800.26      2932921    1927472.8 
   35000         8.75    14958.153     11162012    2147235.1    845514.59    2992749.7    1917468.9 
   35100        8.775    14760.464     11339136    2216743.7    834340.11    3051083.8      1907465 
   35200          8.8    14478.432     11507312      2288992    818398.17    3107390.2    1897461.1 
   35300        8.825     14129.04     11702732    2363673.3    798648.66    3162321.9    1887457.2 
   35400         8.85    13700.383     11879109    2440431.7     774418.7    3214850.4    1877453.3 
   35500        8.875    13281.628     12079696    2515334.6    750748.41      3266083    1867449.4 
   35600          8.9    12902.686     12288667    2587829.9    729328.61    3317158.5    1857445.5 
   35700        8.925    12592.313     12475617    2657476.1    711784.68    3369260.7    1847441.6 
   35800         8.95    12405.803     12672033    2721508.2    701242.12    3422750.4    1837437.7 
   35900        8.975    12290.525     12870717    2784537.2    694726.01    3479263.3    1827433.8 
   36000            9    12235.541     13112156      2847767    691618.02      3539385    1817429.8 
