LAMMPS (29 Sep 2021)
  using 1 OpenMP thread(s) per MPI task
Reading data file ...
  orthogonal box = (-0.42701795 -0.41068915 0.0000000) to (102.17503 101.65870 526.16902)
  3 by 2 by 16 MPI processor grid
  reading atoms ...
  444272 atoms
  reading velocities ...
  444272 velocities
  read_data CPU = 4.971 seconds
222111 atoms in group g_left
222161 atoms in group g_right

CITE-CITE-CITE-CITE-CITE-CITE-CITE-CITE-CITE-CITE-CITE-CITE-CITE

Your simulation uses code contributions which should be cited:
- @article{cjiang2012
The log file lists these citations in BibTeX format.

CITE-CITE-CITE-CITE-CITE-CITE-CITE-CITE-CITE-CITE-CITE-CITE-CITE

Neighbor list info ...
  update every 1 steps, delay 10 steps, check yes
  max neighbors/atom: 2000, page size: 100000
  master list distance cutoff = 8.28721
  ghost atom cutoff = 8.28721
  binsize = 4.143605, bins = 25 25 127
  3 neighbor lists, perpetual/occasional/extra = 3 0 0
  (1) pair eam/alloy, perpetual, skip from (3)
      attributes: half, newton on
      pair build: skip
      stencil: none
      bin: none
  (2) pair edip/multi, perpetual
      attributes: full, newton on
      pair build: full/bin/atomonly
      stencil: full/bin/3d
      bin: standard
  (3) neighbor class addition, perpetual, half/full from (2)
      attributes: half, newton on
      pair build: halffull/newton
      stencil: none
      bin: none
Setting up Verlet run ...
  Unit style    : metal
  Current step  : 0
  Time step     : 0.00025
Per MPI rank memory allocation (min/avg/max) = 8.338 | 12.63 | 14.58 Mbytes
Step Time Temp Press PotEng KinEng TotEng Volume 
       0            0    8200.5359    87852.709   -2068809.1    470928.35   -1597880.7    5510320.4 
     100        0.025    8199.9164    87908.993   -2068786.5    470892.78   -1597893.7    5499847.9 
     200         0.05    8199.7789    88289.867   -2068792.4    470884.88   -1597907.6    5489375.4 
     300        0.075    8200.1158     88346.44   -2068819.6    470904.23   -1597915.4    5478902.8 
     400          0.1    8199.8057      88349.6   -2068793.7    470886.42   -1597907.3    5468430.3 
     500        0.125    8199.6139    88601.761   -2068783.4    470875.41     -1597908    5457957.8 
     600         0.15    8199.8719    88738.532   -2068792.4    470890.22   -1597902.2    5447485.2 
     700        0.175    8200.3187    88900.823   -2068804.4    470915.88   -1597888.5    5437012.7 
     800          0.2    8200.2167    89179.411   -2068803.1    470910.02   -1597893.1    5426540.2 
     900        0.225    8200.0215    89254.581   -2068788.1    470898.81   -1597889.3    5416067.6 
    1000         0.25    8200.2137    89780.269   -2068791.9    470909.85   -1597882.1    5405595.1 
    1100        0.275    8200.4314    89941.834   -2068809.3    470922.35     -1597887    5395122.6 
    1200          0.3    8200.0839    89864.888   -2068794.5     470902.4   -1597892.1    5384650.1 
    1300        0.325    8200.1267     90241.88   -2068791.2    470904.85   -1597886.4    5374177.5 
    1400         0.35    8199.7831    90211.102   -2068788.8    470885.12   -1597903.7      5363705 
    1500        0.375    8200.3532    90417.469   -2068831.5    470917.86   -1597913.6    5353232.5 
    1600          0.4    8199.6729    90714.612   -2068783.7    470878.79   -1597904.9    5342759.9 
    1700        0.425    8199.7832    90521.636   -2068791.5    470885.13   -1597906.4    5332287.4 
    1800         0.45    8200.4565    90828.344   -2068821.3    470923.79   -1597897.5    5321814.9 
    1900        0.475    8200.1125    91165.673   -2068790.1    470904.04   -1597886.1    5311342.4 
    2000          0.5    8200.0245    91507.671   -2068785.7    470898.99   -1597886.7    5300869.8 
    2100        0.525    8200.1773    91299.529   -2068811.8    470907.76     -1597904    5290397.3 
    2200         0.55    8200.1124    91739.825   -2068808.1    470904.03   -1597904.1    5279924.8 
    2300        0.575    8199.9238    91896.704   -2068803.4     470893.2   -1597910.2    5269452.2 
    2400          0.6    8201.8647    91987.596   -2068918.1    471004.66   -1597913.4    5258979.7 
    2500        0.625    8206.1561    92111.584   -2069160.5     471251.1   -1597909.4    5248507.2 
    2600         0.65    8211.4312     92436.88   -2069463.4    471554.03   -1597909.3    5238034.6 
    2700        0.675    8196.1684    94136.921     -2068584    470677.54   -1597906.4    5227562.1 
    2800          0.7    8181.6309    95820.207   -2067736.3    469842.71   -1597893.6    5217089.6 
    2900        0.725    8167.6328    97542.519   -2066929.8    469038.84     -1597891    5206617.1 
    3000         0.75    8146.8846    99322.774   -2065740.5    467847.34   -1597893.2    5196144.5 
    3100        0.775    8127.9455    101252.89     -2064642    466759.74   -1597882.2      5185672 
    3200          0.8    8110.0305       103261   -2063625.7    465730.94   -1597894.7    5175199.5 
    3300        0.825     8089.425    105459.59   -2062447.8    464547.64   -1597900.1    5164726.9 
    3400         0.85    8068.2807    107562.85   -2061215.5    463333.39   -1597882.2    5154254.4 
    3500        0.875    8034.9263    111019.97   -2059312.1    461417.96   -1597894.2    5143781.9 
    3600          0.9      7996.74    114892.95   -2057120.2    459225.06   -1597895.2    5133309.4 
    3700        0.925    7957.6189    118630.52   -2054856.5    456978.47     -1597878    5122836.8 
    3800         0.95    7912.9269    123260.64   -2052303.9    454411.97     -1597892    5112364.3 
    3900        0.975    7868.9458    127191.55   -2049778.2    451886.28   -1597891.9    5101891.8 
    4000            1    7815.7235    131600.17     -2046724    448829.91     -1597894    5091419.2 
    4100        1.025    7761.3947    136354.37   -2043598.6    445709.99   -1597888.6    5080946.7 
    4200         1.05    7707.2699    141001.23   -2040474.7    442601.79   -1597872.9    5070474.2 
    4300        1.075    7649.6782    145829.29   -2037178.6    439294.51   -1597884.1    5060001.7 
    4400          1.1    7594.1399    150951.44   -2033998.7    436105.13   -1597893.6    5049529.1 
    4500        1.125    7537.8713    156503.57     -2030743    432873.82   -1597869.1    5039056.6 
    4600         1.15    7480.6232    161975.31   -2027454.1    429586.26   -1597867.9    5028584.1 
    4700        1.175    7422.8754    167415.24   -2024135.6       426270   -1597865.6    5018111.5 
    4800          1.2    7367.1205    172847.99   -2020912.9    423068.19   -1597844.7      5007639 
    4900        1.225    7309.6941    178208.54   -2017616.3     419770.4   -1597845.9    4997166.5 
    5000         1.25    7253.7707    183676.62   -2014414.2    416558.91   -1597855.3    4986693.9 
    5100        1.275    7197.0994     189353.7   -2011145.9    413304.47   -1597841.4    4976221.4 
    5200          1.3    7138.1824    195001.18   -2007765.7    409921.07   -1597844.6    4965748.9 
    5300        1.325    7081.3354    200706.59   -2004512.4    406656.55   -1597855.9    4955276.4 
    5400         1.35    7024.8637    206034.95   -2001252.7    403413.57   -1597839.1    4944803.8 
    5500        1.375    6966.4259    211725.67   -1997894.8    400057.69   -1597837.1    4934331.3 
    5600          1.4    6908.4861    217501.76   -1994580.1    396730.41   -1597849.7    4923858.8 
    5700        1.425     6851.473    223181.01   -1991300.4    393456.35     -1597844    4913386.2 
    5800         1.45    6793.4362    229013.95   -1987983.5     390123.5     -1597860    4902913.7 
    5900        1.475    6736.2802    234392.36   -1984721.1    386841.23   -1597879.9    4892441.2 
    6000          1.5    6679.5771     240034.9   -1981461.6    383584.96   -1597876.6    4881968.7 
    6100        1.525    6622.2923    245601.97   -1978171.5    380295.29   -1597876.2    4871496.1 
    6200         1.55    6564.4568     251285.7   -1974844.7       376974   -1597870.7    4861023.6 
    6300        1.575    6507.6521    257420.78   -1971554.9     373711.9     -1597843    4850551.1 
    6400          1.6     6450.295    263168.65   -1968263.9    370418.08   -1597845.8    4840078.5 
    6500        1.625    6392.7851    269147.47   -1964952.2    367115.49   -1597836.7      4829606 
    6600         1.65    6336.4433    275098.38   -1961703.4    363879.98   -1597823.4    4819133.5 
    6700        1.675    6278.4723    280775.05   -1958355.3     360550.9   -1597804.4    4808660.9 
    6800          1.7    6220.7884    286831.68   -1955044.8    357238.31   -1597806.5    4798188.4 
    6900        1.725    6163.0455    293110.48   -1951722.6    353922.34   -1597800.3    4787715.9 
    7000         1.75    6105.0476    298820.54   -1948404.9    350591.73   -1597813.2    4777243.4 
    7100        1.775    6047.4217    305411.41   -1945093.7    347282.47   -1597811.3    4766770.8 
    7200          1.8    5990.3729    311886.68   -1941810.3    344006.35   -1597803.9    4756298.3 
    7300        1.825    5986.4922    314491.62   -1941578.7     343783.5   -1597795.2    4745825.8 
    7400         1.85    5982.9926    314728.03   -1941389.6    343582.52     -1597807    4735353.2 
    7500        1.875    5948.5736    315139.44   -1939410.1    341605.96   -1597804.1    4724880.7 
    7600          1.9    5949.5792    316638.89   -1939475.4    341663.71   -1597811.7    4714408.2 
    7700        1.925    5938.9316    319159.84   -1938859.9    341052.25   -1597807.6    4703935.7 
    7800         1.95    5907.1601    321076.47   -1937032.4    339227.73   -1597804.7    4693463.1 
    7900        1.975    5934.6178    321410.32   -1938629.7    340804.53   -1597825.2    4682990.6 
    8000            2    5889.6785    322468.72   -1936056.3    338223.82   -1597832.5    4672518.1 
    8100        2.025    5899.7965    323268.06   -1936618.3    338804.87   -1597813.5    4662045.5 
    8200         2.05    5897.6925    325082.52   -1936495.9    338684.04   -1597811.8      4651573 
    8300        2.075    5875.8072    325968.06   -1935222.8    337427.24   -1597795.6    4641100.5 
    8400          2.1     5901.637    326524.56   -1936707.4    338910.56   -1597796.8      4630628 
    8500        2.125    5863.0688    327687.65   -1934494.5    336695.72   -1597798.8    4620155.4 
    8600         2.15    5847.7461    330821.87   -1933622.2    335815.79   -1597806.4    4609682.9 
    8700        2.175    5795.9846    334648.52   -1930673.7     332843.3   -1597830.4    4599210.4 
    8800          2.2    5749.5533    337462.82   -1928004.2    330176.92   -1597827.3    4588737.8 
    8900        2.225    5718.4829    341518.76   -1926213.5    328392.65   -1597820.9    4578265.3 
    9000         2.25     5660.124    345052.73   -1922880.5     325041.3   -1597839.2    4567792.8 
    9100        2.275    5618.6629     348556.4   -1920499.3    322660.33     -1597839    4557320.2 
    9200          2.3    5566.2276    353214.12   -1917468.1    319649.16   -1597818.9    4546847.7 
    9300        2.325    5527.5171    358252.03   -1915251.9    317426.15   -1597825.7    4536375.2 
    9400         2.35    5472.0402    362686.48     -1912070     314240.3   -1597829.7    4525902.7 
    9500        2.375    5423.3096    368580.18   -1909271.9    311441.87     -1597830    4515430.1 
    9600          2.4    5372.8342    375332.23   -1906386.4    308543.24   -1597843.2    4504957.6 
    9700        2.425    5325.2621    381239.58   -1903646.5    305811.34   -1597835.1    4494485.1 
    9800         2.45    5275.2317    387696.91     -1900778    302938.27   -1597839.7    4484012.5 
    9900        2.475    5223.3156    394375.94   -1897785.8    299956.91   -1597828.9      4473540 
   10000          2.5    5168.6408    401413.91   -1894656.7    296817.13   -1597839.6    4463067.5 
   10100        2.525    5113.4501    408844.12   -1891511.8    293647.72   -1597864.1      4452595 
   10200         2.55    5054.8564    416547.43   -1888145.3    290282.88   -1597862.4    4442122.4 
   10300        2.575    4993.0665     424606.8   -1884598.6     286734.5   -1597864.1    4431649.9 
   10400          2.6    4926.7634    432403.32   -1880763.6    282926.95   -1597836.7    4421177.4 
   10500        2.625    4858.0351    440803.65   -1876819.1    278980.12     -1597839    4410704.8 
   10600         2.65     4788.424    449408.46   -1872835.9    274982.59   -1597853.3    4400232.3 
   10700        2.675    4714.0731    458090.23   -1868559.4    270712.88   -1597846.5    4389759.8 
   10800          2.7     4636.459    466943.89   -1864118.3    266255.77   -1597862.6    4379287.3 
   10900        2.725    4557.3859    475817.66     -1859580    261714.87   -1597865.1    4368814.7 
   11000         2.75    4480.5383    484201.52   -1855191.6    257301.78   -1597889.9    4358342.2 
   11100        2.775    4404.9668    492728.75   -1850867.7    252961.97   -1597905.7    4347869.7 
   11200          2.8    4334.4486    500991.28     -1846801    248912.36   -1597888.6    4337397.1 
   11300        2.825    4263.2474    508938.55   -1842699.5    244823.52     -1597876    4326924.6 
   11400         2.85    4196.8633    516858.09   -1838873.5    241011.31   -1597862.1    4316452.1 
   11500        2.875    4131.8333    524249.83   -1835147.2    237276.86   -1597870.3    4305979.5 
   11600          2.9    4071.8179    531800.67   -1831698.8    233830.39   -1597868.5      4295507 
   11700        2.925    4011.8302    538922.15   -1828252.5     230385.5     -1597867    4285034.5 
   11800         2.95    3955.5658    545583.41   -1825043.3    227154.44   -1597888.9      4274562 
   11900        2.975    3901.3761    551931.72   -1821943.7    224042.51   -1597901.2    4264089.4 
   12000            3    3849.1382    558349.09   -1818924.8    221042.66   -1597882.2    4253616.9 
   12100        3.025    3798.5133    564554.62   -1816020.1    218135.45   -1597884.6    4243144.4 
   12200         3.05    3736.6535    573511.27     -1812470    214583.06   -1597886.9    4232671.8 
   12300        3.075    3698.4045    582079.66   -1810273.8    212386.55   -1597887.2    4222199.3 
   12400          3.1    3656.2156    594925.72   -1807874.6    209963.79   -1597910.9    4211726.8 
   12500        3.125    3604.1881    605970.25   -1804895.8    206976.03   -1597919.8    4201254.3 
   12600         3.15     3553.933    614982.32   -1801992.9    204090.05   -1597902.8    4190781.7 
   12700        3.175    3520.1506    621784.82   -1800049.3    202150.05   -1597899.3    4180309.2 
   12800          3.2     3482.071    631762.19   -1797852.8    199963.27   -1597889.5    4169836.7 
   12900        3.225    3436.9723       641476   -1795272.7    197373.41   -1597899.2    4159364.1 
   13000         3.25    3392.5006    645179.02   -1792719.6    194819.55     -1597900    4148891.6 
   13100        3.275    3355.5567    649354.68   -1790618.7    192697.99   -1597920.7    4138419.1 
   13200          3.3     3314.689    654069.24   -1788271.3     190351.1   -1597920.2    4127946.5 
   13300        3.325    3275.3087    659422.74   -1786017.1    188089.63   -1597927.5      4117474 
   13400         3.35    3234.8104    664537.59   -1783686.8    185763.95   -1597922.9    4107001.5 
   13500        3.375    3203.0865    672311.55   -1781872.4    183942.16   -1597930.2      4096529 
   13600          3.4    3168.2136    679442.11   -1779863.5    181939.53     -1597924    4086056.4 
   13700        3.425     3134.781    685712.66   -1777955.3     180019.6   -1597935.7    4075583.9 
   13800         3.45    3104.2275    692729.37   -1776200.8    178265.03   -1597935.8    4065111.4 
   13900        3.475    3068.9561    699500.05   -1774198.6    176239.51   -1597959.1    4054638.8 
   14000          3.5    3037.6624    706888.06   -1772389.7    174442.42   -1597947.3    4044166.3 
   14100        3.525    3003.8218    715201.77   -1770457.1    172499.07     -1597958    4033693.8 
   14200         3.55    2963.8449    722900.43   -1768164.2    170203.34   -1597960.9    4023221.3 
   14300        3.575    2922.4854    731002.92   -1765779.3    167828.21   -1597951.1    4012748.7 
   14400          3.6    2877.1877    740385.76   -1763188.6    165226.92   -1597961.7    4002276.2 
   14500        3.625    2829.9482    750325.21   -1760459.9    162514.12   -1597945.8    3991803.7 
   14600         3.65    2774.5274    759928.02   -1757282.2    159331.49   -1597950.7    3981331.1 
   14700        3.675    2721.3656    770192.65   -1754233.7    156278.59   -1597955.1    3970858.6 
   14800          3.7    2658.8522    781550.92   -1750665.7    152688.67     -1597977    3960386.1 
   14900        3.725    2600.3792    792685.64   -1747311.8    149330.76   -1597981.1    3949913.6 
   15000         3.75    2537.4857    803099.12   -1743695.7    145719.01   -1597976.7      3939441 
   15100        3.775    2473.7181    813400.06   -1740026.4    142057.06   -1597969.4    3928968.5 
   15200          3.8    2405.7264    824966.37   -1736111.6    138152.53     -1597959      3918496 
   15300        3.825    2340.7677    835010.28   -1732395.5    134422.18   -1597973.3    3908023.4 
   15400         3.85     2273.392    844856.35   -1728534.5    130553.02   -1597981.5    3897550.9 
   15500        3.875    2205.0875    855447.72   -1724608.3    126630.53   -1597977.7    3887078.4 
   15600          3.9    2136.4421     864357.3   -1720676.8    122688.47   -1597988.3    3876605.8 
   15700        3.925    2075.4503    874722.21   -1717175.6    119185.91   -1597989.7    3866133.3 
   15800         3.95    2008.5394    882136.78   -1713337.9    115343.45   -1597994.5    3855660.8 
   15900        3.975    1946.2236     890227.3     -1709779    111764.87   -1598014.1    3845188.3 
   16000            4    1882.7202    898007.65   -1706124.6     108118.1   -1598006.6    3834715.7 
   16100        4.025     1825.735    906092.92   -1702860.5    104845.63   -1598014.9    3824243.2 
   16200         4.05    1765.6092    914797.22   -1699413.3    101392.82   -1598020.5    3813770.7 
   16300        4.075    1708.8161    921995.24   -1696139.8    98131.384   -1598008.4    3803298.1 
   16400          4.1    1656.8063    930087.61     -1693160    95144.641   -1598015.4    3792825.6 
   16500        4.125    1600.9138    937933.71   -1689954.8    91934.931   -1598019.9    3782353.1 
   16600         4.15    1583.1229    941095.13     -1688955    90913.261   -1598041.8    3771880.6 
   16700        4.175    1572.4724    943034.46     -1688337    90301.637   -1598035.4      3761408 
   16800          4.2    1554.8522    943378.23   -1687307.4    89289.771   -1598017.6    3750935.5 
   16900        4.225    1557.3603    945009.51   -1687409.6    89433.801   -1597975.7      3740463 
   17000         4.25    1555.7071    946167.77   -1687151.5    89338.864   -1597812.7    3729990.4 
   17100        4.275    1554.8411    948182.38   -1686788.3    89289.138   -1597499.1    3719517.9 
   17200          4.3    1584.6227    950228.72   -1684219.2    90999.389   -1593219.8    3709045.4 
   17300        4.325    1654.5841    955827.72   -1677824.5    95017.027   -1582807.5    3698572.8 
   17400         4.35    1706.4382    960565.88   -1672063.6     97994.83   -1574068.8    3688100.3 
   17500        4.375     1720.227    967216.65     -1665302    98786.672   -1566515.3    3677627.8 
   17600          4.4    1750.0008     978105.5   -1656770.4    100496.48   -1556273.9    3667155.3 
   17700        4.425    1796.0913    990537.38   -1648487.5     103143.3   -1545344.3    3656682.7 
   17800         4.45    1778.9587    1005050.5   -1637147.8    102159.43   -1534988.3    3646210.2 
   17900        4.475    1852.1797    1023431.1   -1626614.1    106364.26   -1520249.8    3635737.7 
   18000          4.5    1950.9486    1043003.6   -1614133.3    112036.21   -1502097.1    3625265.1 
   18100        4.525    2019.8506    1063974.1   -1601760.6    115993.02   -1485767.6    3614792.6 
   18200         4.55    2112.9674    1088006.4   -1588969.9    121340.39   -1467629.5    3604320.1 
   18300        4.575    2261.4959    1111740.8   -1576484.3    129869.87   -1446614.4    3593847.6 
   18400          4.6    2378.4723    1134441.1   -1563352.9    136587.42   -1426765.4      3583375 
   18500        4.625    2522.1143    1158287.6   -1551330.7    144836.28   -1406494.4    3572902.5 
   18600         4.65    2677.1048    1181029.4   -1538876.4    153736.85   -1385139.5      3562430 
   18700        4.675    2829.9521    1203757.8   -1527055.6    162514.34   -1364541.2    3551957.4 
   18800          4.7    2975.6303    1227321.4   -1515232.6    170880.13   -1344352.4    3541484.9 
   18900        4.725    3128.1465    1249718.2   -1503766.8    179638.61   -1324128.2    3531012.4 
   19000         4.75    3280.8496    1272261.8     -1492257    188407.82   -1303849.2    3520539.9 
   19100        4.775    3432.6971    1296329.5   -1481086.2     197127.9   -1283958.3    3510067.3 
   19200          4.8    3584.3452    1318969.3   -1470592.2    205836.52   -1264755.7    3499594.8 
   19300        4.825    3738.8343    1341908.5   -1460123.1     214708.3   -1245414.8    3489122.3 
   19400         4.85    3904.5921      1364463   -1450280.8    224227.19   -1226053.6    3478649.7 
   19500        4.875    4068.3144    1385988.9   -1440948.8     233629.2   -1207319.6    3468177.2 
   19600          4.9    4241.6591    1406708.1   -1432449.9    243583.78   -1188866.1    3457704.7 
   19700        4.925     4400.594    1426757.7   -1423169.1    252710.86   -1170458.3    3447232.1 
   19800         4.95    4551.0257    1450809.6   -1413572.9    261349.63   -1152223.3    3436759.6 
   19900        4.975    4692.2254    1486030.3   -1403788.9    269458.24   -1134330.6    3426287.1 
   20000            5    4869.8557      1524271   -1395966.4    279658.93   -1116307.4    3415814.6 
   20100        5.025    5048.0355    1556266.4   -1388394.2    289891.18     -1098503      3405342 
   20200         5.05     5199.891    1588699.5   -1379642.5    298611.72   -1081030.8    3394869.5 
   20300        5.075    5369.1001    1608074.4   -1371837.7    308328.81   -1063508.9      3384397 
   20400          5.1    5522.5523    1625723.3   -1363511.6    317141.04   -1046370.5    3373924.4 
   20500        5.125    5679.9771      1646626   -1355537.2     326181.4   -1029355.8    3363451.9 
   20600         5.15    5812.3544      1669892   -1346129.9    333783.36   -1012346.6    3352979.4 
   20700        5.175    5917.3962    1691866.1   -1335677.5    339815.55   -995861.92    3342506.9 
   20800          5.2     6014.127    1716401.9   -1324656.7    345370.47   -979286.22    3332034.3 
   20900        5.225    6080.8097      1743581   -1312338.9    349199.82   -963139.04    3321561.8 
   21000         5.25    6131.1749      1769831   -1299255.7    352092.12   -947163.63    3311089.3 
   21100        5.275    6168.6007      1795798   -1285889.3    354241.36   -931647.91    3300616.7 
   21200          5.3    6190.1035    1823748.1   -1271680.4    355476.19   -916204.25    3290144.2 
   21300        5.325     6203.377    1851765.1   -1257260.6    356238.44   -901022.21    3279671.7 
   21400         5.35    6204.4742    1880423.9     -1242194    356301.45   -885892.59    3269199.1 
   21500        5.375    6203.1861    1908205.3   -1227102.9    356227.48   -870875.44    3258726.6 
   21600          5.4    6203.7048    1936089.3   -1212353.9    356257.26   -856096.65    3248254.1 
   21700        5.425    6190.8721    1962881.8     -1196997    355520.33   -841476.64    3237781.6 
   21800         5.45    6187.6233    1990515.3   -1182495.4    355333.76   -827161.66      3227309 
   21900        5.475    6168.5118    2019338.4   -1167422.3    354236.25   -813186.02    3216836.5 
   22000          5.5    6132.8946    2049180.2   -1152122.9    352190.88   -799932.02      3206364 
   22100        5.525    6103.4804    2076729.5   -1137400.9    350501.72   -786899.15    3195891.4 
   22200         5.55    6126.9335    2099491.4   -1125990.7    351848.56   -774142.18    3185418.9 
   22300        5.575    6188.9512      2115211   -1117059.2    355410.01   -761649.17    3174946.4 
   22400          5.6    6257.5853    2126220.3   -1108165.4    359351.44   -748813.96    3164473.9 
   22500        5.625     6346.698      2136556   -1100288.9    364468.87   -735820.01    3154001.3 
   22600         5.65    6444.7047    2150096.5   -1092883.3    370097.05   -722786.29    3143528.8 
   22700        5.675    6549.9058      2163433   -1085638.8    376138.39   -709500.39    3133056.3 
   22800          5.7    6629.0152    2183490.5   -1076827.5    380681.37   -696146.13    3122583.7 
   22900        5.725    6718.8947    2203796.7     -1067848    385842.83   -682005.17    3112111.2 
   23000         5.75    6818.4867    2223527.9   -1058731.1    391562.06   -667169.09    3101638.7 
   23100        5.775    6928.3044    2243741.2   -1049035.8    397868.51   -651167.32    3091166.2 
   23200          5.8    7041.3359    2268232.4   -1038791.2    404359.51   -634431.67    3080693.6 
   23300        5.825    7158.2192    2294973.3   -1028031.3    411071.71   -616959.54    3070221.1 
   23400         5.85    7271.3136    2320289.5     -1016533    417566.34   -598966.64    3059748.6 
   23500        5.875    7390.3525    2347389.8   -1004236.4    424402.33   -579834.04      3049276 
   23600          5.9    7511.1439      2370997   -991615.17    431338.96   -560276.22    3038803.5 
   23700        5.925    7638.9195    2398649.9   -978625.57    438676.67    -539948.9      3028331 
   23800         5.95    7763.1413    2424758.2   -964894.03     445810.3   -519083.73    3017858.4 
   23900        5.975    7890.1683      2451996   -950791.52    453105.02    -497686.5    3007385.9 
   24000            6    8017.2844    2478584.6   -936113.06    460404.86    -475708.2    2996913.4 
   24100        6.025    8147.9054    2508614.3   -921211.01    467905.97   -453305.05    2986440.9 
   24200         6.05     8273.458    2539491.9      -905960    475116.02   -430843.98    2975968.3 
   24300        6.075    8400.1524      2571041   -890662.47    482391.64   -408270.84    2965495.8 
   24400          6.1    8527.5678    2604396.4   -875289.24    489708.66   -385580.58    2955023.3 
   24500        6.125    8682.5119    2638280.2   -861458.64    498606.56   -362852.08    2944550.7 
   24600         6.15    8850.3537    2669459.6   -848368.08    508245.14   -340122.95    2934078.2 
   24700        6.175    9063.0162    2693119.7   -837802.29    520457.61   -317344.68    2923605.7 
   24800          6.2     9243.685    2719073.3   -825694.69    530832.79    -294861.9    2913133.2 
   24900        6.225    9359.3087    2750908.8   -809619.28    537472.66   -272146.62    2902660.6 
   25000         6.25    9468.7633    2790732.8   -793604.76    543758.26    -249846.5    2892188.1 
   25100        6.275    9565.9418    2837071.7   -776886.91    549338.88   -227548.03    2881715.6 
   25200          6.3    9602.8542    2881078.9   -757134.74    551458.63    -205676.1      2871243 
   25300        6.325    9619.0791    2922006.6    -736504.5    552390.37   -184114.13    2860770.5 
   25400         6.35    9630.7796      2964281   -716419.85    553062.29   -163357.56      2850298 
   25500        6.375    9616.9353    3006535.1   -695306.44    552267.26   -143039.18    2839825.4 
   25600          6.4    9606.5345    3047711.6   -675254.31    551669.98   -123584.33    2829352.9 
   25700        6.425    9572.0903      3087290   -654755.78    549691.97   -105063.82    2818880.4 
   25800         6.45    9540.3516    3125248.4   -634979.84    547869.33   -87110.516    2808407.9 
   25900        6.475    9489.5303    3163275.7   -615189.62    544950.84   -70238.782    2797935.3 
   26000          6.5      9427.11    3201219.1   -595313.03    541366.25   -53946.772    2787462.8 
   26100        6.525     9348.438    3237590.2   -575133.36    536848.39   -38284.969    2776990.3 
   26200         6.55    9265.4186    3270524.5   -555587.16    532080.88   -23506.289    2766517.7 
   26300        6.575    9166.1181    3311208.9   -535420.93    526378.39   -9042.5375    2756045.2 
   26400          6.6    9081.0607    3349099.8    -516533.2    521493.84    4960.6444    2745572.7 
   26500        6.625     8982.484      3385655   -497095.25    515832.92    18737.668    2735100.2 
   26600         6.65    8894.6866    3421831.2   -478356.43    510791.02    32434.586    2724627.6 
   26700        6.675    8857.1529    3452490.5   -462746.96    508635.59    45888.627    2714155.1 
   26800          6.7    8799.0353    3481546.8    -445737.6     505298.1    59560.495    2703682.6 
   26900        6.725    8761.0456    3511400.9   -429546.73    503116.48    73569.758      2693210 
   27000         6.75    8665.2522    3546920.2    -409269.4     497615.4    88345.999    2682737.5 
   27100        6.775    8561.3523    3588207.9   -387946.86    491648.79    103701.92      2672265 
   27200          6.8    8428.5908    3627433.2   -364766.09    484024.75    119258.67    2661792.5 
   27300        6.825    8272.6819    3669385.1   -339871.47    475071.45    135199.98    2651319.9 
   27400         6.85    8143.2522    3712070.4   -316204.54    467638.75    151434.21    2640847.4 
   27500        6.875    8000.5377    3755560.2   -291206.92    459443.15    168236.24    2630374.9 
   27600          6.9    7897.9021    3804513.2   -268262.05    453549.14    185287.09    2619902.3 
   27700        6.925    7783.7943    3852068.6   -243997.54    446996.33    202998.78    2609429.8 
   27800         6.95    7688.5574    3903776.3   -220482.14     441527.2    221045.06    2598957.3 
   27900        6.975    7600.9469    3955741.9   -197578.58    436496.03    238917.45    2588484.7 
   28000            7    7534.2765    4009496.6   -175364.09    432667.38    257303.29    2578012.2 
   28100        7.025    7475.0442    4069427.3   -153497.26    429265.88    275768.62    2567539.7 
   28200         7.05    7442.0684      4131766   -132803.15    427372.19    294569.04    2557067.2 
   28300        7.075    7469.7467    4194765.4   -115420.25    428961.66    313541.42    2546594.6 
   28400          7.1    7475.6424    4262552.3   -96715.628    429300.23     332584.6    2536122.1 
   28500        7.125    7516.1334    4329508.9   -79567.554    431625.49    352057.93    2525649.6 
   28600         7.15    7520.0947    4390348.6   -59868.912    431852.97    371984.06      2515177 
   28700        7.175    7496.7418    4451536.3   -38550.349     430511.9    391961.55    2504704.5 
   28800          7.2    7475.7541    4514751.9   -17086.879    429306.65    412219.77      2494232 
   28900        7.225    7422.5194    4585374.5     6413.187    426249.56    432662.75    2483759.5 
   29000         7.25    7372.7235    4651770.3     30098.37    423389.95    453488.32    2473286.9 
   29100        7.275    7293.0047    4721070.3    55482.867    418811.98    474294.85    2462814.4 
   29200          7.3    7242.1208    4794718.9    79836.421    415889.89    495726.31    2452341.9 
   29300        7.325    7176.2753    4867996.9    104896.54    412108.62    517005.16    2441869.3 
   29400         7.35    7103.7673    4937360.7    130589.22    407944.73    538533.96    2431396.8 
   29500        7.375    7011.6335    5013071.5    157756.05    402653.81    560409.86    2420924.3 
   29600          7.4    6956.3618    5082139.5    183011.07    399479.74    582490.82    2410451.7 
   29700        7.425    6923.3185    5153164.5    208740.53    397582.18    606322.71    2399979.2 
   29800         7.45    6961.5137    5220047.7    233360.99    399775.61     633136.6    2389506.7 
   29900        7.475    7049.3226    5293297.1    260711.37    404818.16    665529.53    2379034.2 
   30000          7.5    7212.3896    5373086.2    290313.35    414182.53    704495.88    2368561.6 
   30100        7.525    7385.3019    5463640.7    322702.44    424112.29    746814.73    2358089.1 
   30200         7.55    7572.4235    5552762.1    356077.39    434858.03    790935.43    2347616.6 
   30300        7.575    7760.2234    5648793.9    391794.86    445642.73     837437.6      2337144 
   30400          7.6    7991.3605    5748934.2    428263.92    458916.13    887180.05    2326671.5 
   30500        7.625    8204.3451    5851683.4    466137.69     471147.1    937284.79      2316199 
   30600         7.65    8412.6114    5962781.8    505782.89    483107.11    988890.01    2305726.5 
   30700        7.675    8656.4032    6075672.4    544464.21    497107.23    1041571.4    2295253.9 
   30800          7.7    8921.1902      6196800    583408.86    512313.03    1095721.9    2284781.4 
   30900        7.725    9198.2787      6332996    621761.45    528225.26    1149986.7    2274308.9 
   31000         7.75    9487.0629    6486937.8    660562.51    544809.14    1205371.6    2263836.3 
   31100        7.775    9776.2226    6648659.8    699855.68    561414.58    1261270.3    2253363.8 
   31200          7.8    10029.624    6802376.8    741915.26    575966.57    1317881.8    2242891.3 
   31300        7.825    10235.071    6944328.8    786673.65    587764.64    1374438.3    2232418.8 
   31400         7.85    10426.079    7089980.5    831603.73    598733.56    1430337.3    2221946.2 
   31500        7.875    10575.786    7237139.8    878837.87    607330.72    1486168.6    2211473.7 
   31600          7.9    10729.186    7384345.4    924857.34    616139.96    1540997.3    2201001.2 
   31700        7.925    10807.364    7523271.7    975285.26    620629.47    1595914.7    2190528.6 
   31800         7.95    10956.509    7668546.6    1021457.1    629194.31    1650651.4    2180056.1 
   31900        7.975    11078.622    7810140.2    1069559.9    636206.85    1705766.8    2169583.6 
   32000            8    11245.558    7943761.7    1115611.9    645793.43    1761405.4      2159111 
   32100        8.025    11507.454    8077667.6    1158769.3    660833.22    1819602.5    2148638.5 
   32200         8.05    11800.065      8209772      1202534    677636.82    1880170.8      2138166 
   32300        8.075    12148.918    8343067.8    1245340.9    697670.27    1943011.2    2127693.5 
   32400          8.1    12490.807    8479279.5    1290705.8    717303.75    2008009.6    2117220.9 
   32500        8.125    12860.875    8619674.9    1336121.2     738555.5    2074676.7    2106748.4 
   32600         8.15    13203.865    8764642.3    1384781.7    758252.22    2143033.9    2096275.9 
   32700        8.175    13557.551    8911503.6    1433655.2    778563.16    2212218.4    2085803.3 
   32800          8.2    13871.709    9065272.4    1485903.6    796604.14    2282507.8    2075330.8 
   32900        8.225    14221.358      9217863    1536641.6    816683.31    2353324.9    2064858.3 
   33000         8.25    14554.901    9383557.6    1588891.8     835837.5    2424729.3    2054385.8 
   33100        8.275    14881.487    9555623.5    1641519.2     854592.2    2496111.4    2043913.2 
   33200          8.3    15134.313    9732397.1    1698377.4    869111.14    2567488.5    2033440.7 
   33300        8.325    15332.485    9924040.2    1757473.2    880491.45    2637964.6    2022968.2 
   33400         8.35    15458.401     10124415    1819964.2    887722.41    2707686.6    2012495.6 
   33500        8.375    15483.531     10328036    1886538.7    889165.51    2775704.2    2002023.1 
   33600          8.4    15435.453     10532806    1954490.8    886404.58    2840895.4    1991550.6 
   33700        8.425    15288.783     10740123    2025238.8    877981.81    2903220.6      1981078 
   33800         8.45    15104.337     10946633    2096327.4    867389.69    2963717.1    1970605.5 
   33900        8.475    14804.106     11154349    2171546.9    850148.47    3021695.3      1960133 
   34000          8.5    14539.315     11352219    2243807.9    834942.45    3078750.4    1949660.5 
   34100        8.525    14178.048     11553798    2321401.5    814196.16    3135597.7    1939187.9 
   34200         8.55    13822.954     11768411    2398898.2    793804.33    3192702.6    1928715.4 
   34300        8.575    13432.595     11970547    2479622.4    771387.39    3251009.8    1918242.9 
   34400          8.6    13045.636     12180034    2560940.9    749165.67    3310106.6    1907770.3 
   34500        8.625    12689.898     12389717    2642665.3    728736.84    3371402.1    1897297.8 
   34600         8.65    12382.733     12617410    2723013.8    711097.43    3434111.3    1886825.3 
   34700        8.675    12162.661     12867302    2800724.9    698459.44    3499184.3    1876352.8 
   34800          8.7    12011.115     13127907    2875987.6    689756.69    3565744.3    1865880.2 
   34900        8.725    11921.498     13390546    2949810.7    684610.33    3634421.1    1855407.7 
   35000         8.75    11823.086     13643124    3025370.4    678958.88    3704329.3    1844935.2 
   35100        8.775    11717.903     13895821    3103258.1    672918.56    3776176.7    1834462.6 
   35200          8.8    11600.952     14161141    3183392.8    666202.44    3849595.2    1823990.1 
