LAMMPS data file via MDAnalysis

       51984  atoms
           0  bonds
           0  angles
           0  dihedrals
           0  impropers

           1  atom types
           0  bond types
           0  angle types
           0  dihedral types
           0  improper types

0.000000 100.000000 xlo xhi
0.000000 100.000000 ylo yhi
0.000000 99.334717 zlo zhi


Masses

1 58.710000

Atoms

1 0 1 2.271738 0.554037 72.500183
2 0 1 0.554037 2.271738 72.500183
3 0 1 5.717346 0.552018 72.470245
4 0 1 3.986290 2.261807 72.414780
5 0 1 9.214363 0.552317 72.463737
6 0 1 7.469522 2.258273 72.396935
7 0 1 12.712065 0.554574 72.456116
8 0 1 10.962401 2.260478 72.388817
9 0 1 16.210516 0.551581 72.452049
10 0 1 14.461610 2.258547 72.384247
11 0 1 19.704428 0.554293 72.450378
12 0 1 17.956083 2.258284 72.381325
13 0 1 23.199894 0.552807 72.449821
14 0 1 21.452126 2.258548 72.378693
15 0 1 24.948412 2.258431 72.385712
16 0 1 2.261807 3.986290 72.414780
17 0 1 0.552018 5.717346 72.470245
18 0 1 5.731780 3.990819 72.387962
19 0 1 3.990819 5.731780 72.387962
20 0 1 9.214969 3.988848 72.375443
21 0 1 7.474801 5.732174 72.369583
22 0 1 12.713301 3.987261 72.368614
23 0 1 10.967475 5.730382 72.358421
24 0 1 16.209549 3.986320 72.362511
25 0 1 14.459706 5.728680 72.349640
26 0 1 19.702955 3.986442 72.360367
27 0 1 17.956116 5.727319 72.348373
28 0 1 23.199991 3.984819 72.365547
29 0 1 21.451023 5.726719 72.350754
30 0 1 24.948986 5.724669 72.354836
31 0 1 2.258273 7.469522 72.396935
32 0 1 0.552317 9.214363 72.463737
33 0 1 5.732174 7.474801 72.369583
34 0 1 3.988848 9.214969 72.375443
35 0 1 9.220875 7.475225 72.351189
36 0 1 7.475225 9.220875 72.351189
37 0 1 12.715388 7.476390 72.341393
38 0 1 10.969655 9.222480 72.337631
39 0 1 16.208773 7.470735 72.340012
40 0 1 14.462890 9.219658 72.336121
41 0 1 19.702505 7.472919 72.338646
42 0 1 17.952814 9.216263 72.331810
43 0 1 23.199831 7.470954 72.341324
44 0 1 21.450523 9.218787 72.334389
45 0 1 24.948862 9.216625 72.341652
46 0 1 2.260478 10.962401 72.388817
47 0 1 0.554574 12.712065 72.456116
48 0 1 5.730382 10.967475 72.358421
49 0 1 3.987261 12.713301 72.368614
50 0 1 9.222480 10.969655 72.337631
51 0 1 7.476390 12.715388 72.341393
52 0 1 12.716516 10.968983 72.332352
53 0 1 10.968983 12.716516 72.332352
54 0 1 16.208000 10.965794 72.329803
55 0 1 14.460101 12.712516 72.329994
56 0 1 19.699965 10.967250 72.329147
57 0 1 17.951977 12.712937 72.325729
58 0 1 23.200315 10.965138 72.335724
59 0 1 21.449934 12.710826 72.331947
60 0 1 24.950304 12.709482 72.336502
61 0 1 2.258547 14.461610 72.384247
62 0 1 0.551581 16.210516 72.452049
63 0 1 5.728680 14.459706 72.349640
64 0 1 3.986320 16.209549 72.362511
65 0 1 9.219658 14.462890 72.336121
66 0 1 7.470735 16.208773 72.340012
67 0 1 12.712516 14.460101 72.329994
68 0 1 10.965794 16.208000 72.329803
69 0 1 16.205858 14.459249 72.326813
70 0 1 14.459249 16.205858 72.326813
71 0 1 19.701130 14.457917 72.329140
72 0 1 17.953089 16.206444 72.325264
73 0 1 23.201151 14.458238 72.332787
74 0 1 21.450727 16.206192 72.329330
75 0 1 24.949524 16.205965 72.331078
76 0 1 2.258284 17.956083 72.381325
77 0 1 0.554293 19.704428 72.450378
78 0 1 5.727319 17.956116 72.348373
79 0 1 3.986442 19.702955 72.360367
80 0 1 9.216263 17.952814 72.331810
81 0 1 7.472919 19.702505 72.338646
82 0 1 12.712937 17.951977 72.325729
83 0 1 10.967250 19.699965 72.329147
84 0 1 16.206444 17.953089 72.325264
85 0 1 14.457917 19.701130 72.329140
86 0 1 19.701336 17.952660 72.326134
87 0 1 17.952660 19.701336 72.326134
88 0 1 23.199486 17.952755 72.326744
89 0 1 21.450117 19.701035 72.327560
90 0 1 24.949156 19.700905 72.328758
91 0 1 2.258548 21.452126 72.378693
92 0 1 0.552807 23.199894 72.449821
93 0 1 5.726719 21.451023 72.350754
94 0 1 3.984819 23.199991 72.365547
95 0 1 9.218787 21.450523 72.334389
96 0 1 7.470954 23.199831 72.341324
97 0 1 12.710826 21.449934 72.331947
98 0 1 10.965138 23.200315 72.335724
99 0 1 16.206192 21.450727 72.329330
100 0 1 14.458238 23.201151 72.332787
101 0 1 19.701035 21.450117 72.327560
102 0 1 17.952755 23.199486 72.326744
103 0 1 23.199957 21.450493 72.327751
104 0 1 21.450493 23.199957 72.327751
105 0 1 24.951296 23.201622 72.330132
106 0 1 2.258431 24.948412 72.385712
107 0 1 5.724669 24.948986 72.354836
108 0 1 9.216625 24.948862 72.341652
109 0 1 12.709482 24.950304 72.336502
110 0 1 16.205965 24.949524 72.331078
111 0 1 19.700905 24.949156 72.328758
112 0 1 23.201622 24.951296 72.330132
113 0 1 0.560080 0.560080 74.270813
114 0 1 2.284904 2.284904 74.239624
115 0 1 2.283969 0.540766 76.001495
116 0 1 0.540766 2.283969 76.001495
117 0 1 4.000693 0.538174 74.229836
118 0 1 5.736799 2.282002 74.197815
119 0 1 5.752807 0.543992 75.967484
120 0 1 4.018499 2.280210 75.987198
121 0 1 7.474593 0.541162 74.196266
122 0 1 9.221682 2.284485 74.181160
123 0 1 9.226842 0.543938 75.940445
124 0 1 7.492859 2.278800 75.957001
125 0 1 10.967337 0.541271 74.185310
126 0 1 12.714126 2.284925 74.175041
127 0 1 12.714314 0.543683 75.932335
128 0 1 10.971107 2.280041 75.938133
129 0 1 14.463554 0.540924 74.181435
130 0 1 16.209700 2.284870 74.170586
131 0 1 16.210999 0.543240 75.924835
132 0 1 14.462488 2.280038 75.928299
133 0 1 17.956488 0.540080 74.178421
134 0 1 19.704533 2.284738 74.169266
135 0 1 19.704618 0.543418 75.924042
136 0 1 17.957594 2.279133 75.924698
137 0 1 21.453268 0.540367 74.176224
138 0 1 23.196482 2.284598 74.170822
139 0 1 23.193499 0.542807 75.927925
140 0 1 21.448902 2.280509 75.927238
141 0 1 24.942389 0.541985 74.183609
142 0 1 24.934677 2.281392 75.937080
143 0 1 0.538174 4.000693 74.229836
144 0 1 2.282002 5.736799 74.197815
145 0 1 2.280210 4.018499 75.987198
146 0 1 0.543992 5.752807 75.967484
147 0 1 4.011671 4.011671 74.195663
148 0 1 5.744780 5.744780 74.164520
149 0 1 5.757763 4.020215 75.963341
150 0 1 4.020215 5.757763 75.963341
151 0 1 7.479962 4.011181 74.171425
152 0 1 9.226007 5.747932 74.146698
153 0 1 9.231508 4.023421 75.940163
154 0 1 7.495991 5.759369 75.938866
155 0 1 10.968292 4.012047 74.156723
156 0 1 12.715955 5.748056 74.136215
157 0 1 12.716242 4.022744 75.928780
158 0 1 10.974827 5.760774 75.920517
159 0 1 14.462046 4.012883 74.151299
160 0 1 16.209064 5.744318 74.132637
161 0 1 16.210579 4.022169 75.923676
162 0 1 14.462879 5.760553 75.913330
163 0 1 17.956347 4.012112 74.147186
164 0 1 19.702492 5.744450 74.132042
165 0 1 19.701994 4.022696 75.922661
166 0 1 17.955866 5.760267 75.909645
167 0 1 21.449947 4.012097 74.148994
168 0 1 23.196171 5.745029 74.134163
169 0 1 23.191605 4.024358 75.927986
170 0 1 21.445736 5.762646 75.911095
171 0 1 24.941862 4.011836 74.157318
172 0 1 24.934763 5.760855 75.921555
173 0 1 0.541162 7.474593 74.196266
174 0 1 2.284485 9.221682 74.181160
175 0 1 2.278800 7.492859 75.957001
176 0 1 0.543938 9.226842 75.940445
177 0 1 4.011181 7.479962 74.171425
178 0 1 5.747932 9.226007 74.146698
179 0 1 5.759369 7.495991 75.938866
180 0 1 4.023421 9.231508 75.940163
181 0 1 7.485797 7.485797 74.145676
182 0 1 9.227405 9.227405 74.125099
183 0 1 9.235856 7.499721 75.920258
184 0 1 7.499721 9.235856 75.920258
185 0 1 10.971865 7.486897 74.127815
186 0 1 12.716668 9.224425 74.117691
187 0 1 12.718284 7.498176 75.908005
188 0 1 10.976703 9.235585 75.899849
189 0 1 14.461520 7.482772 74.124435
190 0 1 16.208107 9.221725 74.114296
191 0 1 16.209248 7.496295 75.900467
192 0 1 14.463710 9.234474 75.890121
193 0 1 17.954603 7.481832 74.120331
194 0 1 19.700403 9.222825 74.112305
195 0 1 19.699631 7.498080 75.899406
196 0 1 17.953274 9.233357 75.886909
197 0 1 21.448463 7.482618 74.121544
198 0 1 23.196922 9.221169 74.115479
199 0 1 23.192066 7.497620 75.904312
200 0 1 21.444939 9.233274 75.887497
201 0 1 24.941738 7.479299 74.128693
202 0 1 24.936005 9.230562 75.896790
203 0 1 0.541271 10.967337 74.185310
204 0 1 2.284925 12.714126 74.175041
205 0 1 2.280041 10.971107 75.938133
206 0 1 0.543683 12.714314 75.932335
207 0 1 4.012047 10.968292 74.156723
208 0 1 5.748056 12.715955 74.136215
209 0 1 5.760774 10.974827 75.920517
210 0 1 4.022744 12.716242 75.928780
211 0 1 7.486897 10.971865 74.127815
212 0 1 9.224425 12.716668 74.117691
213 0 1 9.235585 10.976703 75.899849
214 0 1 7.498176 12.718284 75.908005
215 0 1 10.972212 10.972212 74.114403
216 0 1 12.715394 12.715394 74.109062
217 0 1 12.718855 10.975291 75.886101
218 0 1 10.975291 12.718855 75.886101
219 0 1 14.462576 10.970054 74.110214
220 0 1 16.206882 12.714706 74.106010
221 0 1 16.208143 10.975320 75.880363
222 0 1 14.461492 12.717545 75.878754
223 0 1 17.951962 10.968198 74.105125
224 0 1 19.699623 12.712594 74.105171
225 0 1 19.698322 10.973419 75.878265
226 0 1 17.952734 12.715261 75.874046
227 0 1 21.447668 10.967419 74.107994
228 0 1 23.197802 12.712371 74.109245
229 0 1 23.191971 10.971927 75.882683
230 0 1 21.445477 12.715058 75.874992
231 0 1 24.943205 10.966368 74.116135
232 0 1 24.936926 12.714248 75.884308
233 0 1 0.540924 14.463554 74.181435
234 0 1 2.284870 16.209700 74.170586
235 0 1 2.280038 14.462488 75.928299
236 0 1 0.543240 16.210999 75.924835
237 0 1 4.012883 14.462046 74.151299
238 0 1 5.744318 16.209064 74.132637
239 0 1 5.760553 14.462879 75.913330
240 0 1 4.022169 16.210579 75.923676
241 0 1 7.482772 14.461520 74.124435
242 0 1 9.221725 16.208107 74.114296
243 0 1 9.234474 14.463710 75.890121
244 0 1 7.496295 16.209248 75.900467
245 0 1 10.970054 14.462576 74.110214
246 0 1 12.714706 16.206882 74.106010
247 0 1 12.717545 14.461492 75.878754
248 0 1 10.975320 16.208143 75.880363
249 0 1 14.458944 14.458944 74.106277
250 0 1 16.205782 16.205782 74.102692
251 0 1 16.206732 14.460804 75.871422
252 0 1 14.460804 16.206732 75.871422
253 0 1 17.951836 14.459337 74.102524
254 0 1 19.700029 16.204342 74.102905
255 0 1 19.698084 14.458458 75.870407
256 0 1 17.952114 16.206179 75.868088
257 0 1 21.448751 14.458957 74.106560
258 0 1 23.198757 16.205521 74.103760
259 0 1 23.193933 14.459207 75.874405
260 0 1 21.446451 16.205906 75.868675
261 0 1 24.943865 14.458608 74.110779
262 0 1 24.936821 16.206076 75.876160
263 0 1 0.540080 17.956488 74.178421
264 0 1 2.284738 19.704533 74.169266
265 0 1 2.279133 17.957594 75.924698
266 0 1 0.543418 19.704618 75.924042
267 0 1 4.012112 17.956347 74.147186
268 0 1 5.744450 19.702492 74.132042
269 0 1 5.760267 17.955866 75.909645
270 0 1 4.022696 19.701994 75.922661
271 0 1 7.481832 17.954603 74.120331
272 0 1 9.222825 19.700403 74.112305
273 0 1 9.233357 17.953274 75.886909
274 0 1 7.498080 19.699631 75.899406
275 0 1 10.968198 17.951962 74.105125
276 0 1 12.712594 19.699623 74.105171
277 0 1 12.715261 17.952734 75.874046
278 0 1 10.973419 19.698322 75.878265
279 0 1 14.459337 17.951836 74.102524
280 0 1 16.204342 19.700029 74.102905
281 0 1 16.206179 17.952114 75.868088
282 0 1 14.458458 19.698084 75.870407
283 0 1 17.953173 17.953173 74.098862
284 0 1 19.701187 19.701187 74.102135
285 0 1 19.699594 17.952623 75.865417
286 0 1 17.952623 19.699594 75.865417
287 0 1 21.449694 17.952536 74.101379
288 0 1 23.197607 19.701416 74.100311
289 0 1 23.193172 17.953939 75.868370
290 0 1 21.447441 19.700518 75.865211
291 0 1 24.943323 17.953470 74.104095
292 0 1 24.936266 19.700150 75.872147
293 0 1 0.540367 21.453268 74.176224
294 0 1 2.284598 23.196482 74.170822
295 0 1 2.280509 21.448902 75.927238
296 0 1 0.542807 23.193499 75.927925
297 0 1 4.012097 21.449947 74.148994
298 0 1 5.745029 23.196171 74.134163
299 0 1 5.762646 21.445736 75.911095
300 0 1 4.024358 23.191605 75.927986
301 0 1 7.482618 21.448463 74.121544
302 0 1 9.221169 23.196922 74.115479
303 0 1 9.233274 21.444939 75.887497
304 0 1 7.497620 23.192066 75.904312
305 0 1 10.967419 21.447668 74.107994
306 0 1 12.712371 23.197802 74.109245
307 0 1 12.715058 21.445477 75.874992
308 0 1 10.971927 23.191971 75.882683
309 0 1 14.458957 21.448751 74.106560
310 0 1 16.205521 23.198757 74.103760
311 0 1 16.205906 21.446451 75.868675
312 0 1 14.459207 23.193933 75.874405
313 0 1 17.952536 21.449694 74.101379
314 0 1 19.701416 23.197607 74.100311
315 0 1 19.700518 21.447441 75.865211
316 0 1 17.953939 23.193172 75.868370
317 0 1 21.449850 21.449850 74.100090
318 0 1 23.197895 23.197895 74.100754
319 0 1 23.192865 21.447252 75.868027
320 0 1 21.447252 23.192865 75.868027
321 0 1 24.943438 21.450636 74.104935
322 0 1 24.936172 23.192186 75.876747
323 0 1 0.541985 24.942389 74.183609
324 0 1 2.281392 24.934677 75.937080
325 0 1 4.011836 24.941862 74.157318
326 0 1 5.760855 24.934763 75.921555
327 0 1 7.479299 24.941738 74.128693
328 0 1 9.230562 24.936005 75.896790
329 0 1 10.966368 24.943205 74.116135
330 0 1 12.714248 24.936926 75.884308
331 0 1 14.458608 24.943865 74.110779
332 0 1 16.206076 24.936821 75.876160
333 0 1 17.953470 24.943323 74.104095
334 0 1 19.700150 24.936266 75.872147
335 0 1 21.450636 24.943438 74.104935
336 0 1 23.192186 24.936172 75.876747
337 0 1 24.944315 24.944315 74.111443
338 0 1 0.558658 0.558658 77.759964
339 0 1 2.283767 2.283767 77.761063
340 0 1 2.283210 0.544421 79.526505
341 0 1 0.544421 2.283210 79.526505
342 0 1 4.024555 0.543998 77.760406
343 0 1 5.765660 2.279812 77.747078
344 0 1 5.772957 0.547660 79.528854
345 0 1 4.024902 2.282484 79.528229
346 0 1 7.505877 0.544224 77.737755
347 0 1 9.241875 2.278540 77.725365
348 0 1 9.255028 0.546266 79.512650
349 0 1 7.514952 2.282123 79.517677
350 0 1 10.976415 0.545117 77.713676
351 0 1 12.721477 2.278974 77.706833
352 0 1 12.730267 0.546755 79.485970
353 0 1 10.993829 2.281307 79.497665
354 0 1 14.466171 0.545822 77.698654
355 0 1 16.212534 2.278198 77.696869
356 0 1 16.216244 0.545029 79.471809
357 0 1 14.473921 2.281298 79.477661
358 0 1 17.957336 0.542891 77.692688
359 0 1 19.700422 2.278777 77.696526
360 0 1 19.695147 0.545045 79.472511
361 0 1 17.955584 2.280116 79.470955
362 0 1 21.445501 0.544383 77.697914
363 0 1 23.185150 2.279226 77.704628
364 0 1 23.174192 0.544807 79.485214
365 0 1 21.434982 2.281071 79.476311
366 0 1 24.924448 0.545121 77.711700
367 0 1 24.914331 2.282475 79.489029
368 0 1 0.543998 4.024555 77.760406
369 0 1 2.279812 5.765660 77.747078
370 0 1 2.282484 4.024902 79.528229
371 0 1 0.547660 5.772957 79.528854
372 0 1 4.025550 4.025550 77.751923
373 0 1 5.767624 5.767624 77.735764
374 0 1 5.769725 4.024982 79.522041
375 0 1 4.024982 5.769725 79.522041
376 0 1 7.505273 4.021936 77.734161
377 0 1 9.245739 5.764918 77.718475
378 0 1 9.254346 4.022856 79.507118
379 0 1 7.512846 5.769155 79.508629
380 0 1 10.982811 4.019758 77.713264
381 0 1 12.724468 5.765469 77.699715
382 0 1 12.734863 4.023143 79.486893
383 0 1 10.997218 5.767087 79.492973
384 0 1 14.467897 4.019795 77.698586
385 0 1 16.211140 5.765996 77.691559
386 0 1 16.215132 4.023296 79.473511
387 0 1 14.474607 5.766787 79.476799
388 0 1 17.955936 4.019591 77.694298
389 0 1 19.698694 5.768349 77.689819
390 0 1 19.695749 4.024335 79.471176
391 0 1 17.956415 5.767869 79.468117
392 0 1 21.442486 4.022218 77.697807
393 0 1 23.184519 5.769462 77.697754
394 0 1 23.175093 4.024952 79.480965
395 0 1 21.435413 5.769712 79.472748
396 0 1 24.925211 4.022344 77.710236
397 0 1 24.914682 5.769423 79.485992
398 0 1 0.544224 7.505877 77.737755
399 0 1 2.278540 9.241875 77.725365
400 0 1 2.282123 7.514952 79.517677
401 0 1 0.546266 9.255028 79.512650
402 0 1 4.021936 7.505273 77.734161
403 0 1 5.764918 9.245739 77.718475
404 0 1 5.769155 7.512846 79.508629
405 0 1 4.022856 9.254346 79.507118
406 0 1 7.507690 7.507690 77.720497
407 0 1 9.248096 9.248096 77.704597
408 0 1 9.255884 7.511672 79.496300
409 0 1 7.511672 9.255884 79.496300
410 0 1 10.986091 7.506612 77.702820
411 0 1 12.725940 9.248024 77.686699
412 0 1 12.739120 7.512162 79.480591
413 0 1 10.999496 9.256196 79.485428
414 0 1 14.468207 7.508349 77.688843
415 0 1 16.208794 9.248332 77.676155
416 0 1 16.215054 7.511913 79.466118
417 0 1 14.476704 9.258326 79.469223
418 0 1 17.953815 7.508880 77.683098
419 0 1 19.697390 9.249232 77.674843
420 0 1 19.694294 7.513006 79.463867
421 0 1 17.955433 9.258199 79.460548
422 0 1 21.441246 7.510324 77.687202
423 0 1 23.184481 9.248640 77.681740
424 0 1 23.175068 7.515363 79.473373
425 0 1 21.433922 9.260065 79.465515
426 0 1 24.925812 7.509357 77.699371
427 0 1 24.914997 9.260586 79.477531
428 0 1 0.545117 10.976415 77.713676
429 0 1 2.278974 12.721477 77.706833
430 0 1 2.281307 10.993829 79.497665
431 0 1 0.546755 12.730267 79.485970
432 0 1 4.019758 10.982811 77.713264
433 0 1 5.765469 12.724468 77.699715
434 0 1 5.767087 10.997218 79.492973
435 0 1 4.023143 12.734863 79.486893
436 0 1 7.506612 10.986091 77.702820
437 0 1 9.248024 12.725940 77.686699
438 0 1 9.256196 10.999496 79.485428
439 0 1 7.512162 12.739120 79.480591
440 0 1 10.987072 10.987072 77.685555
441 0 1 12.726276 12.726276 77.667404
442 0 1 12.740257 11.000951 79.469269
443 0 1 11.000951 12.740257 79.469269
444 0 1 14.467762 10.987167 77.668831
445 0 1 16.209137 12.725961 77.657745
446 0 1 16.215357 11.002029 79.455704
447 0 1 14.476696 12.739828 79.453949
448 0 1 17.953020 10.985225 77.664032
449 0 1 19.697037 12.724669 77.655174
450 0 1 19.693783 11.001943 79.453529
451 0 1 17.954453 12.738978 79.444496
452 0 1 21.441189 10.985421 77.666382
453 0 1 23.185198 12.723965 77.660919
454 0 1 23.175470 11.003359 79.461327
455 0 1 21.434263 12.740233 79.446732
456 0 1 24.926115 10.984501 77.676353
457 0 1 24.916140 12.738627 79.457565
458 0 1 0.545822 14.466171 77.698654
459 0 1 2.278198 16.212534 77.696869
460 0 1 2.281298 14.473921 79.477661
461 0 1 0.545029 16.216244 79.471809
462 0 1 4.019795 14.467897 77.698586
463 0 1 5.765996 16.211140 77.691559
464 0 1 5.766787 14.474607 79.476799
465 0 1 4.023296 16.215132 79.473511
466 0 1 7.508349 14.468207 77.688843
467 0 1 9.248332 16.208794 77.676155
468 0 1 9.258326 14.476704 79.469223
469 0 1 7.511913 16.215054 79.466118
470 0 1 10.987167 14.467762 77.668831
471 0 1 12.725961 16.209137 77.657745
472 0 1 12.739828 14.476696 79.453949
473 0 1 11.002029 16.215357 79.455704
474 0 1 14.467134 14.467134 77.655136
475 0 1 16.207262 16.207262 77.648643
476 0 1 16.213795 14.475005 79.439827
477 0 1 14.475005 16.213795 79.439827
478 0 1 17.952066 14.465276 77.648979
479 0 1 19.697205 16.207346 77.643661
480 0 1 19.693203 14.474068 79.435791
481 0 1 17.953453 16.213291 79.429436
482 0 1 21.441683 14.465397 77.650177
483 0 1 23.185425 16.207001 77.648888
484 0 1 23.176125 14.473905 79.441986
485 0 1 21.435642 16.213320 79.430717
486 0 1 24.927225 14.465171 77.659996
487 0 1 24.916340 16.212204 79.441193
488 0 1 0.542891 17.957336 77.692688
489 0 1 2.278777 19.700422 77.696526
490 0 1 2.280116 17.955584 79.470955
491 0 1 0.545045 19.695147 79.472511
492 0 1 4.019591 17.955936 77.694298
493 0 1 5.768349 19.698694 77.689819
494 0 1 5.767869 17.956415 79.468117
495 0 1 4.024335 19.695749 79.471176
496 0 1 7.508880 17.953815 77.683098
497 0 1 9.249232 19.697390 77.674843
498 0 1 9.258199 17.955433 79.460548
499 0 1 7.513006 19.694294 79.463867
500 0 1 10.985225 17.953020 77.664032
501 0 1 12.724669 19.697037 77.655174
502 0 1 12.738978 17.954453 79.444496
503 0 1 11.001943 19.693783 79.453529
504 0 1 14.465276 17.952066 77.648979
505 0 1 16.207346 19.697205 77.643661
506 0 1 16.213291 17.953453 79.429436
507 0 1 14.474068 19.693203 79.435791
508 0 1 17.952408 17.952408 77.640968
509 0 1 19.698025 19.698025 77.640320
510 0 1 19.694916 17.953524 79.424255
511 0 1 17.953524 19.694916 79.424255
512 0 1 21.442101 17.952394 77.642952
513 0 1 23.185402 19.698195 77.644691
514 0 1 23.176538 17.953426 79.430229
515 0 1 21.435747 19.694639 79.424950
516 0 1 24.926846 17.952982 77.652138
517 0 1 24.915880 19.694046 79.435638
518 0 1 0.544383 21.445501 77.697914
519 0 1 2.279226 23.185150 77.704628
520 0 1 2.281071 21.434982 79.476311
521 0 1 0.544807 23.174192 79.485214
522 0 1 4.022218 21.442486 77.697807
523 0 1 5.769462 23.184519 77.697754
524 0 1 5.769712 21.435413 79.472748
525 0 1 4.024952 23.175093 79.480965
526 0 1 7.510324 21.441246 77.687202
527 0 1 9.248640 23.184481 77.681740
528 0 1 9.260065 21.433922 79.465515
529 0 1 7.515363 23.175068 79.473373
530 0 1 10.985421 21.441189 77.666382
531 0 1 12.723965 23.185198 77.660919
532 0 1 12.740233 21.434263 79.446732
533 0 1 11.003359 23.175470 79.461327
534 0 1 14.465397 21.441683 77.650177
535 0 1 16.207001 23.185425 77.648888
536 0 1 16.213320 21.435642 79.430717
537 0 1 14.473905 23.176125 79.441986
538 0 1 17.952394 21.442101 77.642952
539 0 1 19.698195 23.185402 77.644691
540 0 1 19.694639 21.435747 79.424950
541 0 1 17.953426 23.176538 79.430229
542 0 1 21.442427 21.442427 77.643494
543 0 1 23.184076 23.184076 77.650925
544 0 1 23.175266 21.435482 79.431580
545 0 1 21.435482 23.175266 79.431580
546 0 1 24.926239 21.441895 77.654633
547 0 1 24.915285 23.174526 79.443085
548 0 1 0.545121 24.924448 77.711700
549 0 1 2.282475 24.914331 79.489029
550 0 1 4.022344 24.925211 77.710236
551 0 1 5.769423 24.914682 79.485992
552 0 1 7.509357 24.925812 77.699371
553 0 1 9.260586 24.914997 79.477531
554 0 1 10.984501 24.926115 77.676353
555 0 1 12.738627 24.916140 79.457565
556 0 1 14.465171 24.927225 77.659996
557 0 1 16.212204 24.916340 79.441193
558 0 1 17.952982 24.926846 77.652138
559 0 1 19.694046 24.915880 79.435638
560 0 1 21.441895 24.926239 77.654633
561 0 1 23.174526 24.915285 79.443085
562 0 1 24.926651 24.926651 77.665817
563 0 1 0.563535 0.563535 81.299889
564 0 1 2.283945 2.283945 81.302849
565 0 1 2.285054 0.544636 83.077782
566 0 1 0.544636 2.285054 83.077782
567 0 1 4.018045 0.545464 81.300850
568 0 1 5.772447 2.283156 81.299911
569 0 1 5.772196 0.548546 83.070091
570 0 1 4.027392 2.284256 83.073059
571 0 1 7.523148 0.547776 81.299545
572 0 1 9.266689 2.282325 81.290733
573 0 1 9.276508 0.548554 83.065514
574 0 1 7.525737 2.284616 83.068497
575 0 1 11.011127 0.547182 81.282806
576 0 1 12.747045 2.282688 81.272919
577 0 1 12.758817 0.547638 83.059608
578 0 1 11.017344 2.284304 83.062477
579 0 1 14.484351 0.549900 81.260750
580 0 1 16.221407 2.281833 81.257591
581 0 1 16.230270 0.546518 83.045609
582 0 1 14.495653 2.283282 83.052063
583 0 1 17.954697 0.546953 81.251404
584 0 1 19.690632 2.283370 81.254616
585 0 1 19.690306 0.546104 83.037460
586 0 1 17.961962 2.280841 83.042755
587 0 1 21.425676 0.547368 81.256371
588 0 1 23.164928 2.284085 81.263435
589 0 1 23.155615 0.545313 83.041023
590 0 1 21.422768 2.284190 83.041153
591 0 1 24.905966 0.548899 81.268181
592 0 1 24.893412 2.284020 83.051048
593 0 1 0.545464 4.018045 81.300850
594 0 1 2.283156 5.772447 81.299911
595 0 1 2.284256 4.027392 83.073059
596 0 1 0.548546 5.772196 83.070091
597 0 1 4.026834 4.026834 81.301071
598 0 1 5.773931 5.773931 81.294067
599 0 1 5.778404 4.029414 83.071472
600 0 1 4.029414 5.778404 83.071472
601 0 1 7.519640 4.027585 81.293159
602 0 1 9.262805 5.772984 81.283134
603 0 1 9.271209 4.028835 83.065697
604 0 1 7.525630 5.777172 83.067657
605 0 1 11.006858 4.025477 81.279533
606 0 1 12.747666 5.772894 81.270226
607 0 1 12.757352 4.028469 83.054955
608 0 1 11.014989 5.775607 83.058769
609 0 1 14.486107 4.025684 81.264816
610 0 1 16.223772 5.771543 81.255859
611 0 1 16.231417 4.026729 83.045929
612 0 1 14.496300 5.776921 83.049271
613 0 1 17.957741 4.025864 81.254623
614 0 1 19.691744 5.773633 81.252892
615 0 1 19.690542 4.028992 83.042152
616 0 1 17.962341 5.777695 83.044739
617 0 1 21.427574 4.028465 81.257713
618 0 1 23.164854 5.774713 81.260559
619 0 1 23.157114 4.028221 83.045776
620 0 1 21.424637 5.778466 83.043373
621 0 1 24.904282 4.027637 81.270264
622 0 1 24.895962 5.777464 83.050934
623 0 1 0.547776 7.523148 81.299545
624 0 1 2.282325 9.266689 81.290733
625 0 1 2.284616 7.525737 83.068497
626 0 1 0.548554 9.276508 83.065514
627 0 1 4.027585 7.519640 81.293159
628 0 1 5.772984 9.262805 81.283134
629 0 1 5.777172 7.525630 83.067657
630 0 1 4.028835 9.271209 83.065697
631 0 1 7.517623 7.517623 81.285667
632 0 1 9.260026 9.260026 81.271339
633 0 1 9.270811 7.524316 83.061485
634 0 1 7.524316 9.270811 83.061485
635 0 1 11.004940 7.515748 81.272034
636 0 1 12.749325 9.260253 81.262733
637 0 1 12.754221 7.523247 83.049835
638 0 1 11.012046 9.269178 83.050919
639 0 1 14.488985 7.517756 81.260635
640 0 1 16.223961 9.261123 81.249687
641 0 1 16.231340 7.523924 83.045052
642 0 1 14.493873 9.268770 83.044464
643 0 1 17.958378 7.517305 81.250755
644 0 1 19.692255 9.263128 81.247162
645 0 1 19.692810 7.524363 83.041565
646 0 1 17.963621 9.268939 83.041092
647 0 1 21.428270 7.519085 81.253540
648 0 1 23.166672 9.264825 81.253365
649 0 1 23.160595 7.523994 83.043991
650 0 1 21.427715 9.268535 83.039406
651 0 1 24.904585 7.517666 81.264511
652 0 1 24.899042 9.268465 83.045258
653 0 1 0.547182 11.011127 81.282806
654 0 1 2.282688 12.747045 81.272919
655 0 1 2.284304 11.017344 83.062477
656 0 1 0.547638 12.758817 83.059608
657 0 1 4.025477 11.006858 81.279533
658 0 1 5.772894 12.747666 81.270226
659 0 1 5.775607 11.014989 83.058769
660 0 1 4.028469 12.757352 83.054955
661 0 1 7.515748 11.004940 81.272034
662 0 1 9.260253 12.749325 81.262733
663 0 1 9.269178 11.012046 83.050919
664 0 1 7.523247 12.754221 83.049835
665 0 1 11.006441 11.006441 81.261139
666 0 1 12.750783 12.750783 81.253593
667 0 1 12.753870 11.012704 83.040970
668 0 1 11.012704 12.753870 83.040970
669 0 1 14.488876 11.007707 81.252022
670 0 1 16.223886 12.751562 81.243210
671 0 1 16.230703 11.012499 83.039085
672 0 1 14.494392 12.754508 83.038834
673 0 1 17.957485 11.007126 81.243408
674 0 1 19.691921 12.750527 81.239189
675 0 1 19.694841 11.011052 83.036232
676 0 1 17.964085 12.753044 83.034866
677 0 1 21.428621 11.009125 81.244904
678 0 1 23.167362 12.751704 81.243973
679 0 1 23.163271 11.013222 83.036934
680 0 1 21.428141 12.755433 83.032303
681 0 1 24.906385 11.008444 81.255051
682 0 1 24.899361 12.756990 83.036369
683 0 1 0.549900 14.484351 81.260750
684 0 1 2.281833 16.221407 81.257591
685 0 1 2.283282 14.495653 83.052063
686 0 1 0.546518 16.230270 83.045609
687 0 1 4.025684 14.486107 81.264816
688 0 1 5.771543 16.223772 81.255859
689 0 1 5.776921 14.496300 83.049271
690 0 1 4.026729 16.231417 83.045929
691 0 1 7.517756 14.488985 81.260635
692 0 1 9.261123 16.223961 81.249687
693 0 1 9.268770 14.493873 83.044464
694 0 1 7.523924 16.231340 83.045052
695 0 1 11.007707 14.488876 81.252022
696 0 1 12.751562 16.223886 81.243210
697 0 1 12.754508 14.494392 83.038834
698 0 1 11.012499 16.230703 83.039085
699 0 1 14.489279 14.489279 81.243095
700 0 1 16.222931 16.222931 81.231171
701 0 1 16.231018 14.493718 83.036919
702 0 1 14.493718 16.231018 83.036919
703 0 1 17.957195 14.487133 81.233734
704 0 1 19.692945 16.222975 81.223579
705 0 1 19.694860 14.493271 83.031456
706 0 1 17.963543 16.231007 83.030258
707 0 1 21.429516 14.487778 81.232735
708 0 1 23.167683 16.222746 81.227562
709 0 1 23.163389 14.495375 83.031143
710 0 1 21.428770 16.232841 83.025414
711 0 1 24.906668 14.487273 81.240646
712 0 1 24.899168 16.233608 83.028671
713 0 1 0.546953 17.954697 81.251404
714 0 1 2.283370 19.690632 81.254616
715 0 1 2.280841 17.961962 83.042755
716 0 1 0.546104 19.690306 83.037460
717 0 1 4.025864 17.957741 81.254623
718 0 1 5.773633 19.691744 81.252892
719 0 1 5.777695 17.962341 83.044739
720 0 1 4.028992 19.690542 83.042152
721 0 1 7.517305 17.958378 81.250755
722 0 1 9.263128 19.692255 81.247162
723 0 1 9.268939 17.963621 83.041092
724 0 1 7.524363 19.692810 83.041565
725 0 1 11.007126 17.957485 81.243408
726 0 1 12.750527 19.691921 81.239189
727 0 1 12.753044 17.964085 83.034866
728 0 1 11.011052 19.694841 83.036232
729 0 1 14.487133 17.957195 81.233734
730 0 1 16.222975 19.692945 81.223579
731 0 1 16.231007 17.963543 83.030258
732 0 1 14.493271 19.694860 83.031456
733 0 1 17.957996 17.957996 81.220589
734 0 1 19.694052 19.694052 81.216110
735 0 1 19.697699 17.965479 83.022224
736 0 1 17.965479 19.697699 83.022224
737 0 1 21.430492 17.957716 81.219215
738 0 1 23.166973 19.694143 81.219574
739 0 1 23.163187 17.966328 83.021118
740 0 1 21.429300 19.698320 83.017685
741 0 1 24.905931 17.958479 81.227478
742 0 1 24.899296 19.697697 83.022804
743 0 1 0.547368 21.425676 81.256371
744 0 1 2.284085 23.164928 81.263435
745 0 1 2.284190 21.422768 83.041153
746 0 1 0.545313 23.155615 83.041023
747 0 1 4.028465 21.427574 81.257713
748 0 1 5.774713 23.164854 81.260559
749 0 1 5.778466 21.424637 83.043373
750 0 1 4.028221 23.157114 83.045776
751 0 1 7.519085 21.428270 81.253540
752 0 1 9.264825 23.166672 81.253365
753 0 1 9.268535 21.427715 83.039406
754 0 1 7.523994 23.160595 83.043991
755 0 1 11.009125 21.428621 81.244904
756 0 1 12.751704 23.167362 81.243973
757 0 1 12.755433 21.428141 83.032303
758 0 1 11.013222 23.163271 83.036934
759 0 1 14.487778 21.429516 81.232735
760 0 1 16.222746 23.167683 81.227562
761 0 1 16.232841 21.428770 83.025414
762 0 1 14.495375 23.163389 83.031143
763 0 1 17.957716 21.430492 81.219215
764 0 1 19.694143 23.166973 81.219574
765 0 1 19.698320 21.429300 83.017685
766 0 1 17.966328 23.163187 83.021118
767 0 1 21.430410 21.430410 81.216522
768 0 1 23.165319 23.165319 81.225311
769 0 1 23.162710 21.428808 83.018562
770 0 1 21.428808 23.162710 83.018562
771 0 1 24.905226 21.429796 81.226830
772 0 1 24.898041 23.160725 83.023346
773 0 1 0.548899 24.905966 81.268181
774 0 1 2.284020 24.893412 83.051048
775 0 1 4.027637 24.904282 81.270264
776 0 1 5.777464 24.895962 83.050934
777 0 1 7.517666 24.904585 81.264511
778 0 1 9.268465 24.899042 83.045258
779 0 1 11.008444 24.906385 81.255051
780 0 1 12.756990 24.899361 83.036369
781 0 1 14.487273 24.906668 81.240646
782 0 1 16.233608 24.899168 83.028671
783 0 1 17.958479 24.905931 81.227478
784 0 1 19.697697 24.899296 83.022804
785 0 1 21.429796 24.905226 81.226830
786 0 1 23.160725 24.898041 83.023346
787 0 1 24.904181 24.904181 81.238083
788 0 1 0.562133 0.562133 84.849709
789 0 1 2.287550 2.287550 84.843277
790 0 1 2.289321 0.547414 86.612534
791 0 1 0.547414 2.289321 86.612534
792 0 1 4.028797 0.546397 84.845634
793 0 1 5.780080 2.285337 84.843338
794 0 1 5.782704 0.550066 86.617958
795 0 1 4.031600 2.285715 86.615051
796 0 1 7.530155 0.548985 84.839294
797 0 1 9.275623 2.285241 84.840431
798 0 1 9.274413 0.548443 86.619156
799 0 1 7.529595 2.286558 86.617363