LAMMPS (29 Sep 2021)
  using 1 OpenMP thread(s) per MPI task
Reading restart file ...
  restart file = 29 Sep 2021, LAMMPS = 29 Sep 2021
  restoring atom style atomic from restart
  orthogonal box = (-0.49907661 -0.48857796 0.0000000) to (101.57175 101.56125 620.08000)
  3 by 2 by 16 MPI processor grid
  pair style hybrid/overlay stores no restart info
  444002 atoms
  read_restart CPU = 0.191 seconds
Resetting global fix info from restart file:
  fix style: npt, fix ID: 2

CITE-CITE-CITE-CITE-CITE-CITE-CITE-CITE-CITE-CITE-CITE-CITE-CITE

Your simulation uses code contributions which should be cited:
- @article{cjiang2012
The log file lists these citations in BibTeX format.

CITE-CITE-CITE-CITE-CITE-CITE-CITE-CITE-CITE-CITE-CITE-CITE-CITE

All restart file global fix info was re-assigned
Unused restart file peratom fix info:
  fix style: STORE, fix ID: spatialbins_COMPUTE_STORE
Neighbor list info ...
  update every 1 steps, delay 10 steps, check yes
  max neighbors/atom: 2000, page size: 100000
  master list distance cutoff = 8.28721
  ghost atom cutoff = 8.28721
  binsize = 4.143605, bins = 25 25 150
  3 neighbor lists, perpetual/occasional/extra = 3 0 0
  (1) pair eam/alloy, perpetual, skip from (3)
      attributes: half, newton on
      pair build: skip
      stencil: none
      bin: none
  (2) pair edip/multi, perpetual
      attributes: full, newton on
      pair build: full/bin/atomonly
      stencil: full/bin/3d
      bin: standard
  (3) neighbor class addition, perpetual, half/full from (2)
      attributes: half, newton on
      pair build: halffull/newton
      stencil: none
      bin: none
Setting up Verlet run ...
  Unit style    : metal
  Current step  : 11000306
  Time step     : 0.00025
Per MPI rank memory allocation (min/avg/max) = 4.711 | 11.84 | 17.65 Mbytes
Step Time Temp PotEng E_pair TotEng Press Volume Lx Ly Lz CPULeft 
11000306            0    299.80278   -1955425.4   -1955425.4   -1938219.2   -107.26619    6458945.2    102.07082    102.04982       620.08            0 
11010000       2.4235    300.14851   -1955419.9   -1955419.9   -1938193.9    160.91389    6459075.7     102.0657    102.05701       620.08    28316.293 
11020000       4.9235    299.92283     -1955428     -1955428     -1938215    161.86277    6459971.3    102.07092    102.06594       620.08    28098.322 
11030000       7.4235    300.35984     -1955444     -1955444   -1938205.9    60.209953    6459832.1    102.07117    102.06349       620.08    27831.552 
11040000       9.9235    300.62091   -1955453.4   -1955453.4   -1938200.3    313.93571    6460148.9     102.0744    102.06527       620.08    27553.608 
11050000      12.4235    299.60869     -1955411     -1955411     -1938216    72.573607    6460056.9    102.07015    102.06806       620.08    27267.544 
11060000      14.9235    300.39907   -1955468.6   -1955468.6   -1938228.2    86.127813    6460198.2    102.07069    102.06976       620.08     26982.76 
11070000      17.4235     300.1908   -1955433.7   -1955433.7   -1938205.3    58.847079    6459298.1    102.07566    102.05057       620.08    26697.118 
11080000      19.9235    300.22956   -1955439.6   -1955439.6   -1938208.9   -365.24448    6459385.7    102.06388    102.06373       620.08    26408.815 
11090000      22.4235    299.67396   -1955395.3   -1955395.3   -1938196.5      82.1925    6459644.8    102.06688    102.06482       620.08    26121.777 
11100000      24.9235    300.14134   -1955413.3   -1955413.3   -1938187.7    -74.89452    6459318.7    102.08018    102.04637       620.08    25833.918 
11110000      27.4235    299.95983   -1955410.5   -1955410.5   -1938195.3    -192.8372    6459338.3    102.06697    102.05988       620.08    25544.986 
11120000      29.9235    299.96859   -1955402.1   -1955402.1   -1938186.4    106.69896      6459581    102.07116    102.05953       620.08    25256.517 
11130000      32.4235    299.96095     -1955415     -1955415   -1938199.8    46.096915    6460152.1    102.08317    102.05655       620.08    24970.537 
11140000      34.9235    299.95285   -1955412.7   -1955412.7   -1938197.9   -374.04574    6460143.9    102.08276    102.05683       620.08    24685.392 
11150000      37.4235     299.3495   -1955412.5   -1955412.5   -1938232.3    287.62944    6460622.1     102.0808    102.06634       620.08    24400.398 
11160000      39.9235    299.28846   -1955398.2   -1955398.2   -1938221.6    291.47369    6459935.6    102.07546    102.06083       620.08    24113.161 
11170000      42.4235    299.63839   -1955406.4   -1955406.4   -1938209.7   -112.94517    6459365.2    102.07215    102.05513       620.08    23825.851 
11180000      44.9235     300.2548   -1955434.1   -1955434.1     -1938202     28.90088    6459385.2    102.06877    102.05883       620.08    23539.104 
11190000      47.4235    300.23342   -1955431.7   -1955431.7   -1938200.8    157.00984    6458742.9    102.06832    102.04913       620.08    23252.353 
11200000      49.9235    299.86585   -1955409.4   -1955409.4   -1938199.6     163.2913    6458394.3    102.05837    102.05358       620.08    22965.366 
11210000      52.4235    300.28112     -1955409     -1955409   -1938175.4   -38.522134    6458899.2    102.06283    102.05709       620.08    22679.672 
11220000      54.9235    300.58142   -1955420.3   -1955420.3   -1938169.5    59.513391    6459969.7    102.07232    102.06451       620.08    22392.344 
11230000      57.4235    300.31813   -1955416.7   -1955416.7     -1938181    54.784315    6460014.9    102.07282    102.06473       620.08    22105.987 
11240000      59.9235    300.15078   -1955438.3   -1955438.3   -1938212.2   -472.39693    6460640.4     102.0733    102.07413       620.08    21817.752 
11250000      62.4235    300.12835   -1955437.5   -1955437.5   -1938212.6    226.41566    6460082.7    102.07678    102.06184       620.08    21530.351 
11260000      64.9235    300.06218     -1955415     -1955415   -1938193.9   -191.41751    6460557.9    102.07084    102.07529       620.08    21244.228 
11270000      67.4235    300.27352   -1955410.3   -1955410.3   -1938177.2   -81.763143    6460523.1    102.08048    102.06509       620.08     20956.99 
11280000      69.9235    300.49244   -1955438.8   -1955438.8   -1938193.1   -1.7390927    6460045.3    102.06909    102.06894       620.08    20670.098 
11290000      72.4235    299.58439   -1955427.8   -1955427.8   -1938234.2   -152.75869      6459149    102.06713    102.05674       620.08    20383.314 
11300000      74.9235    299.92104   -1955415.6   -1955415.6   -1938202.7    157.98781    6459240.7    102.06959    102.05573       620.08    20096.154 
11310000      77.4235    300.01276   -1955429.5   -1955429.5   -1938211.2   -347.97946    6459995.2    102.07764     102.0596       620.08    19809.092 
11320000      79.9235     299.8755   -1955422.6   -1955422.6   -1938212.2   -100.91298    6458995.5    102.06766    102.05378       620.08    19522.391 
11330000      82.4235    300.41887   -1955418.4   -1955418.4   -1938176.9   -122.86769    6459392.7    102.06776    102.05996       620.08    19235.067 
11340000      84.9235    300.06525   -1955420.5   -1955420.5   -1938199.3   -507.91641    6459441.8    102.06167    102.06682       620.08     18948.25 
11350000      87.4235    300.26986   -1955408.3   -1955408.3   -1938175.3    135.97485      6459862    102.07847    102.05666       620.08    18661.714 
11360000      89.9235      299.662   -1955425.4   -1955425.4   -1938227.4     178.5808    6459349.4    102.07023    102.05681       620.08    18375.234 
11370000      92.4235    299.79058   -1955443.4   -1955443.4   -1938237.9    323.44931    6459394.8    102.07203    102.05572       620.08    18088.295 
11380000      94.9235    300.07726   -1955430.3   -1955430.3   -1938208.4    9.1084463    6459758.7    102.06971    102.06379       620.08    17801.122 
11390000      97.4235    300.40817   -1955414.2   -1955414.2   -1938173.3   -221.33724    6459907.6     102.0751    102.06076       620.08    17514.152 
11400000      99.9235    299.95376   -1955425.3   -1955425.3   -1938210.5   -83.714325    6458470.3    102.06661    102.04653       620.08    17227.115 
11410000     102.4235    299.51976   -1955425.6   -1955425.6   -1938235.6   -533.03623    6460102.5    102.07802    102.06091       620.08    16939.727 
11420000     104.9235    299.70279   -1955405.6   -1955405.6   -1938205.2    67.408282    6459420.5    102.06456     102.0636       620.08    16652.744 
11430000     107.4235    300.04285   -1955445.8   -1955445.8   -1938225.8   -28.790753    6458879.2    102.06652    102.05309       620.08    16365.756 
11440000     109.9235    300.03485   -1955391.9   -1955391.9   -1938172.4   -385.72484      6459279    102.07065    102.05527       620.08    16078.699 
11450000     112.4235    299.87905     -1955404     -1955404   -1938193.4    -136.3878    6461025.8    102.08239    102.07113       620.08    15791.777 
11460000     114.9235    299.47791   -1955421.1   -1955421.1   -1938233.6   -1.0968061    6459706.7    102.06869    102.06399       620.08    15504.872 
11470000     117.4235    299.66922   -1955437.7   -1955437.7   -1938239.2    139.59801    6460435.9    102.07884    102.06536       620.08    15217.907 
11480000     119.9235    299.88269   -1955425.2   -1955425.2   -1938214.4    395.12354    6459858.5    102.07257     102.0625       620.08    14931.345 
11490000     122.4235    299.38935   -1955422.4   -1955422.4   -1938239.9   -163.13291    6459976.9    102.06923    102.06772       620.08    14644.482 
11500000     124.9235    299.89604   -1955423.9   -1955423.9   -1938212.4   -266.67772    6460339.5    102.07925    102.06343       620.08    14357.623 
11510000     127.4235    299.55434     -1955408     -1955408     -1938216   -70.622708    6458634.1    102.06106    102.05467       620.08    14070.862 
11520000     129.9235    299.73194     -1955429     -1955429   -1938226.9    39.623991    6459637.5    102.06518    102.06641       620.08    13783.554 
11530000     132.4235     299.7058   -1955409.1   -1955409.1   -1938208.5    9.2029349    6458780.3    102.06203    102.05601       620.08     13496.64 
11540000     134.9235    300.50395   -1955435.5   -1955435.5   -1938189.1    290.41326    6458086.1    102.06314    102.04393       620.08    13209.622 
11550000     137.4235    300.41039   -1955451.7   -1955451.7   -1938210.7    229.55117    6458986.2    102.06977    102.05152       620.08    12922.593 
11560000     139.9235    299.94402   -1955407.3   -1955407.3     -1938193    134.45365    6459864.4    102.07895    102.05622       620.08    12635.683 
11570000     142.4235    300.26153   -1955452.9   -1955452.9   -1938220.4    220.15717    6460240.2    102.07582    102.06529       620.08    12348.652 
11580000     144.9235    300.43707   -1955454.6   -1955454.6     -1938212   -128.60075    6460195.1    102.06635    102.07404       620.08    12061.854 
11590000     147.4235    299.80092   -1955425.7   -1955425.7   -1938219.7    145.80372      6460687    102.07442    102.07374       620.08    11775.127 
11600000     149.9235    300.04376   -1955455.4   -1955455.4   -1938235.4    132.43319    6459441.6    102.06973    102.05876       620.08    11488.223 
11610000     152.4235    299.97756   -1955431.9   -1955431.9   -1938215.7     106.3811      6459008    102.06491    102.05672       620.08    11201.211 
11620000     154.9235    299.75572   -1955424.2   -1955424.2   -1938220.7    170.09611    6458486.4    102.07109     102.0423       620.08    10914.218 
11630000     157.4235    300.00457     -1955410     -1955410   -1938192.3   -131.14651    6458771.4    102.06364    102.05426       620.08    10627.366 
11640000     159.9235    299.95869   -1955399.9   -1955399.9   -1938184.8    93.543135    6459262.9    102.06468    102.06098       620.08     10340.58 
11650000     162.4235    299.70038   -1955429.6   -1955429.6   -1938229.4    -105.6053    6459809.4    102.08137    102.05294       620.08    10053.654 
11660000     164.9235    300.07916   -1955437.5   -1955437.5   -1938215.5    -18.37965    6459949.4    102.07686    102.05966       620.08    9766.7748 
11670000     167.4235    300.39442   -1955435.4   -1955435.4   -1938195.2   -110.37548    6459758.9    102.07975    102.05375       620.08    9480.0146 
11680000     169.9235    299.81562   -1955406.2   -1955406.2   -1938199.3     73.53316    6460144.5     102.0755    102.06409       620.08    9193.1501 
11690000     172.4235    300.54322   -1955449.9   -1955449.9   -1938201.2   -70.611491      6459981     102.0758    102.06122       620.08    8906.3101 
11700000     174.9235      299.542     -1955436     -1955436   -1938244.8    264.98397    6459722.3    102.07027    102.06265       620.08    8619.2821 
11710000     177.4235    299.45955     -1955408     -1955408   -1938221.5    354.76761    6459724.9    102.07067    102.06229       620.08    8332.3993 
11720000     179.9235    300.04947   -1955433.9   -1955433.9   -1938213.5   -99.811952    6459102.1    102.07537    102.04776       620.08     8045.626 
11730000     182.4235    300.37093   -1955425.8   -1955425.8     -1938187    47.562514    6459350.5     102.0668    102.06025       620.08    7758.6687 
11740000     184.9235    299.86928     -1955422     -1955422     -1938212   -323.58198    6458590.9    102.06692    102.04813       620.08    7471.6009 
11750000     187.4235    300.11575     -1955432     -1955432   -1938207.8    -224.7948    6459175.3    102.06432    102.05996       620.08    7184.6108 
11760000     189.9235    299.94942   -1955448.8   -1955448.8   -1938234.2   -92.037206    6459450.7    102.06514    102.06349       620.08    6897.5802 
11770000     192.4235    300.53752   -1955440.3   -1955440.3     -1938192   -89.294881    6459634.7    102.07365    102.05789       620.08     6610.586 
11780000     194.9235    300.40465   -1955424.9   -1955424.9   -1938184.2   -8.6940043    6460111.9    102.07631    102.06277       620.08    6323.6088 
11790000     197.4235     299.6335     -1955427     -1955427   -1938230.6    29.983262      6460071    102.08003    102.05841       620.08    6036.5727 
11800000     199.9235    300.16952     -1955444     -1955444   -1938216.7   -118.84695    6460658.1    102.07762    102.07009       620.08    5749.5491 
11810000     202.4235    300.01354   -1955441.8   -1955441.8   -1938223.5   -140.55312    6460054.5    102.06561    102.07256       620.08     5462.474 
11820000     204.9235    299.76865   -1955403.5   -1955403.5   -1938199.2   -188.07537    6460595.2     102.0736    102.07311       620.08    5175.3848 
11830000     207.4235    300.79883   -1955463.3   -1955463.3   -1938199.9    318.03727    6458670.5    102.06555    102.05076       620.08    4888.3765 
11840000     209.9235    299.68922   -1955435.9   -1955435.9   -1938236.2   -131.98312    6459352.4    102.06695    102.06013       620.08     4601.348 
11850000     212.4235    299.37886   -1955413.7   -1955413.7   -1938231.8   -334.34032    6459118.8     102.0686    102.05479       620.08    4314.3185 
11860000     214.9235    299.81753   -1955418.7   -1955418.7   -1938211.6    241.36548    6458134.5     102.0545    102.05333       620.08     4027.336 
11870000     217.4235    299.97583   -1955441.8   -1955441.8   -1938225.7   -366.19825    6459403.5    102.07239     102.0555       620.08     3740.307 
11880000     219.9235    300.18669   -1955442.2   -1955442.2     -1938214   -315.59346    6459612.6    102.06783    102.06336       620.08    3453.2761 
11890000     222.4235    299.99495   -1955410.1   -1955410.1   -1938192.9     37.50704    6459923.3    102.07327    102.06283       620.08    3166.2947 
11900000     224.9235    300.23205   -1955433.2   -1955433.2   -1938202.4    125.58429    6459854.5    102.07588    102.05913       620.08    2879.2434 
11910000     227.4235    299.83277   -1955419.9   -1955419.9     -1938212    160.99468    6459591.9    102.05787    102.07299       620.08    2592.2288 
11920000     229.9235    300.10168   -1955436.4   -1955436.4   -1938213.1   -1.3800023    6459065.7    102.07267    102.04988       620.08    2305.1826 
11930000     232.4235    300.37121   -1955430.4   -1955430.4   -1938191.7    -400.8698      6459885    102.06369    102.07181       620.08    2018.1341 
11940000     234.9235    300.05652   -1955433.3   -1955433.3   -1938212.6   -121.70034    6458459.8    102.06755    102.04542       620.08    1731.0983 
11950000     237.4235    299.54415   -1955418.3   -1955418.3     -1938227   -28.943295      6458640    102.06525    102.05057       620.08    1444.0535 
11960000     239.9235    299.66319   -1955416.4   -1955416.4   -1938218.2   -95.353369    6459140.9    102.06965    102.05409       620.08    1157.0098 
11970000     242.4235    299.91543   -1955436.6   -1955436.6     -1938224   -182.84263    6459022.2    102.06551    102.05635       620.08    869.96195 
11980000     244.9235    300.30191   -1955432.3   -1955432.3   -1938197.4    175.79922    6458401.5    102.05771    102.05434       620.08    582.90505 
11990000     247.4235    300.30489   -1955414.8   -1955414.8   -1938179.9    60.459357    6459919.3    102.07879    102.05725       620.08    295.84822 
12000000     249.9235    300.20249   -1955408.4   -1955408.4   -1938179.3   -155.97701    6460063.6    102.07095    102.06737       620.08    8.7842121 
12000306          250     300.0943   -1955448.6   -1955448.6   -1938225.7   -92.459173    6459602.4    102.07375    102.05728       620.08            0 
Loop time of 28706.6 on 96 procs for 1000000 steps with 444002 atoms

Performance: 0.752 ns/day, 31.896 hours/ns, 34.835 timesteps/s
100.0% CPU use with 96 MPI tasks x 1 OpenMP threads

MPI task timing breakdown:
Section |  min time  |  avg time  |  max time  |%varavg| %total
---------------------------------------------------------------
Pair    | 3.0285     | 19971      | 27623      |5055.1 | 69.57
Neigh   | 0.012436   | 66.765     | 99.968     | 367.1 |  0.23
Comm    | 2.0254     | 2824.6     | 7465.8     |4503.8 |  9.84
Output  | 2.0078     | 2.0094     | 2.0241     |   0.1 |  0.01
Modify  | 527.33     | 5764.4     | 28593      |10288.6 | 20.08
Other   |            | 77.49      |            |       |  0.27

Nlocal:        4625.02 ave        6339 max           0 min
Histogram: 12 0 0 0 0 0 12 24 12 36
Nghost:        8169.95 ave       11055 max           0 min
Histogram: 12 0 0 0 0 12 0 0 48 24
Neighs:         0.00000 ave           0 max           0 min
Histogram: 96 0 0 0 0 0 0 0 0 0
FullNghs:      879896.0 ave 1.35534e+06 max           0 min
Histogram: 12 0 0 0 12 12 12 12 12 24

Total # of neighbors = 84470016
Ave neighs/atom = 190.24693
Neighbor list builds = 2755
Dangerous builds = 0
System init for write_restart ...
System init for write_data ...
Total wall time: 7:58:27
