LAMMPS (29 Sep 2021)
  using 1 OpenMP thread(s) per MPI task
Reading restart file ...
  restart file = 29 Sep 2021, LAMMPS = 29 Sep 2021
  restoring atom style atomic from restart
  orthogonal box = (-0.42553519 -0.39755991 0.0000000) to (102.17355 101.64558 526.16902)
  3 by 2 by 16 MPI processor grid
  pair style hybrid/overlay stores no restart info
  444272 atoms
  read_restart CPU = 0.180 seconds
Resetting global fix info from restart file:
  fix style: npt, fix ID: 2

CITE-CITE-CITE-CITE-CITE-CITE-CITE-CITE-CITE-CITE-CITE-CITE-CITE

Your simulation uses code contributions which should be cited:
- @article{cjiang2012
The log file lists these citations in BibTeX format.

CITE-CITE-CITE-CITE-CITE-CITE-CITE-CITE-CITE-CITE-CITE-CITE-CITE

All restart file global fix info was re-assigned
Unused restart file peratom fix info:
  fix style: STORE, fix ID: spatialbins_COMPUTE_STORE
Neighbor list info ...
  update every 1 steps, delay 10 steps, check yes
  max neighbors/atom: 2000, page size: 100000
  master list distance cutoff = 8.28721
  ghost atom cutoff = 8.28721
  binsize = 4.143605, bins = 25 25 127
  3 neighbor lists, perpetual/occasional/extra = 3 0 0
  (1) pair eam/alloy, perpetual, skip from (3)
      attributes: half, newton on
      pair build: skip
      stencil: none
      bin: none
  (2) pair edip/multi, perpetual
      attributes: full, newton on
      pair build: full/bin/atomonly
      stencil: full/bin/3d
      bin: standard
  (3) neighbor class addition, perpetual, half/full from (2)
      attributes: half, newton on
      pair build: halffull/newton
      stencil: none
      bin: none
Setting up Verlet run ...
  Unit style    : metal
  Current step  : 11000439
  Time step     : 0.00025
Per MPI rank memory allocation (min/avg/max) = 7.119 | 11.42 | 13.36 Mbytes
Step Time Temp PotEng E_pair TotEng Press Volume Lx Ly Lz CPULeft 
11000439            0    300.32475   -2068814.3   -2068814.3   -2051567.7   -177.11475    5508743.6    102.59909    102.04314    526.16902            0 
11010000      2.39025     300.5273   -2068805.5   -2068805.5   -2051547.2    52.988614    5508529.1    102.59234    102.04587    526.16902    42339.748 
11020000      4.89025    299.78407   -2068777.7   -2068777.7   -2051562.1    109.04719    5508213.2    102.58529    102.04703    526.16902    41938.249 
11030000      7.39025    300.32118   -2068779.3   -2068779.3   -2051532.9    4.1037972    5508841.6    102.59874     102.0453    526.16902    41514.988 
11040000      9.89025    299.82986   -2068774.4   -2068774.4   -2051556.2   -41.726572    5508922.4    102.59447    102.05104    526.16902    41097.202 
11050000     12.39025    300.27961   -2068787.6   -2068787.6   -2051543.5     60.28902    5509084.8    102.59583     102.0527    526.16902    40662.076 
11060000     14.89025    300.39695   -2068795.7   -2068795.7     -2051545    116.99446    5510161.7    102.59883    102.06965    526.16902    40231.069 
11070000     17.39025    299.80806   -2068785.9   -2068785.9     -2051569   -104.23312    5510425.7    102.60963    102.06381    526.16902    39805.997 
11080000     19.89025    299.51295   -2068749.2   -2068749.2   -2051549.2   -29.935312    5509407.6    102.60315    102.05139    526.16902    39381.346 
11090000     22.39025    300.05437   -2068776.7   -2068776.7   -2051545.7    221.73281    5509114.1     102.5939    102.05516    526.16902    38949.158 
11100000     24.89025    300.44145   -2068794.6   -2068794.6   -2051541.3    194.64826    5508781.6    102.59445    102.04846    526.16902    38520.208 
11110000     27.39025    299.88814   -2068770.6   -2068770.6   -2051549.1     113.8411    5508386.4    102.59446    102.04112    526.16902    38092.724 
11120000     29.89025    300.26565   -2068779.2   -2068779.2     -2051536   -25.417477    5508414.7    102.59015    102.04593    526.16902    37664.933 
11130000     32.39025    300.06044   -2068785.3   -2068785.3   -2051553.9     272.6131    5507938.4      102.583    102.04422    526.16902    37237.726 
11140000     34.89025    299.73896     -2068768     -2068768     -2051555   -347.50354      5508589    102.59174    102.04758    526.16902    36808.081 
11150000     37.39025     300.0563   -2068770.9   -2068770.9   -2051539.7   -8.2303673    5508682.9    102.58886    102.05219    526.16902    36379.308 
11160000     39.89025     299.5912   -2068770.6   -2068770.6   -2051566.1   -108.38249    5508897.3    102.59397    102.05107    526.16902    35951.499 
11170000     42.39025    299.37755   -2068761.8   -2068761.8   -2051569.6   -64.338666      5509514     102.6001     102.0564    526.16902    35523.278 
11180000     44.89025    299.97329   -2068802.5   -2068802.5     -2051576    90.884401    5510271.9    102.61135    102.05925    526.16902    35094.404 
11190000     47.39025    300.58272   -2068793.4   -2068793.4   -2051531.9   -19.167561    5509631.1     102.6011    102.05757    526.16902    34667.439 
11200000     49.89025    300.15901   -2068781.5   -2068781.5   -2051544.4    32.514379    5509072.1     102.6026    102.04572    526.16902    34238.934 
11210000     52.39025    299.54804   -2068772.7   -2068772.7   -2051570.6   -225.79894    5509065.9    102.59709    102.05109    526.16902    33811.676 
11220000     54.89025    300.27593   -2068770.8   -2068770.8     -2051527    -210.7029    5508712.3    102.59663      102.045    526.16902    33383.879 
11230000     57.39025    300.31557     -2068795     -2068795   -2051548.9   -247.36203    5508632.4    102.59424     102.0459    526.16902    32955.946 
11240000     59.89025    300.51752   -2068807.3   -2068807.3   -2051549.6    117.46713    5507796.3    102.58128    102.04329    526.16902    32528.998 
11250000     62.39025    299.97414   -2068787.1   -2068787.1   -2051560.6    6.7300944    5508683.6    102.58846     102.0526    526.16902    32101.254 
11260000     64.89025     300.4191   -2068782.6   -2068782.6   -2051530.6    -65.91025    5509254.8     102.5956    102.05607    526.16902    31673.054 
11270000     67.39025    299.71071     -2068777     -2068777   -2051565.7    189.67355    5509539.3    102.59583    102.06111    526.16902    31245.322 
11280000     69.89025    299.75974   -2068778.2   -2068778.2     -2051564    112.31125    5509757.5    102.60097    102.06005    526.16902    30816.571 
11290000     72.39025    299.96535   -2068804.2   -2068804.2   -2051578.3    1.0579654    5509837.7     102.6052    102.05733    526.16902    30387.894 
11300000     74.89025    300.01144   -2068762.8   -2068762.8   -2051534.2   -110.51179    5509957.1    102.59321    102.07146    526.16902    29959.726 
11310000     77.39025    299.65798     -2068793     -2068793   -2051584.7      214.608    5508622.6    102.58701    102.05291    526.16902    29531.746 
11320000     79.89025    299.95555   -2068785.8   -2068785.8   -2051560.4   -132.27934    5508654.8    102.59307    102.04748    526.16902    29103.461 
11330000     82.39025    299.93493     -2068762     -2068762   -2051537.8    264.42989    5508258.1    102.58237    102.05077    526.16902    28676.321 
11340000     84.89025    300.00129   -2068797.5   -2068797.5   -2051569.5    61.276824    5508126.5    102.58957    102.04117    526.16902    28248.449 
11350000     87.39025    299.50469   -2068771.5   -2068771.5   -2051571.9    159.48317    5508256.6    102.58913    102.04402    526.16902    27821.231 
11360000     89.89025    300.28661   -2068799.3   -2068799.3   -2051554.9   -39.335454    5509231.9    102.60247    102.04881    526.16902    27393.607 
11370000     92.39025     300.2359     -2068804     -2068804   -2051562.5    1.9177549    5509505.1    102.60539    102.05097    526.16902    26964.967 
11380000     94.89025    300.24185   -2068773.5   -2068773.5   -2051531.6    80.028181    5510122.6    102.61084    102.05698    526.16902    26537.035 
11390000     97.39025    300.13423   -2068811.4   -2068811.4   -2051575.8     337.8089    5510134.2    102.60378    102.06423    526.16902    26109.541 
11400000     99.89025    299.87758   -2068802.3   -2068802.3   -2051581.3    4.1779981    5509471.9     102.5986    102.05711    526.16902     25681.64 
11410000    102.39025    300.33955   -2068794.8   -2068794.8   -2051547.3   -212.91925    5509599.4    102.59922    102.05885    526.16902    25253.972 
11420000    104.89025    300.03354   -2068785.3   -2068785.3   -2051555.4    60.391959    5508481.1    102.59333      102.044    526.16902    24826.502 
11430000    107.39025    299.74483   -2068787.2   -2068787.2   -2051573.9   -167.69278    5508236.6    102.59508    102.03773    526.16902    24399.103 
11440000    109.89025    299.89173   -2068767.3   -2068767.3   -2051545.6    -200.1554    5508428.4    102.59325     102.0431    526.16902    23971.682 
11450000    112.39025    300.56402   -2068780.1   -2068780.1   -2051519.7    253.10123      5508863     102.5855    102.05886    526.16902    23543.661 
11460000    114.89025    299.78399   -2068794.3   -2068794.3   -2051578.8    7.8812724    5508810.8    102.58925    102.05416    526.16902    23115.654 
11470000    117.39025    300.04123   -2068764.1   -2068764.1   -2051533.8    167.26631    5509444.7    102.59318      102.062    526.16902    22687.885 
11480000    119.89025     300.1942   -2068808.2   -2068808.2     -2051569   -191.75489    5510233.6    102.60422    102.06563    526.16902    22259.827 
11490000    122.39025    300.14838   -2068776.6   -2068776.6   -2051540.2    90.551724    5509410.2     102.5974    102.05716    526.16902    21831.471 
11500000    124.89025    299.87822   -2068779.8   -2068779.8   -2051558.8   -41.809657    5510295.2    102.60669    102.06431    526.16902      21403.6 
11510000    127.39025    300.30111   -2068770.4   -2068770.4   -2051525.1    65.702645    5508861.4    102.59157    102.05279    526.16902    20975.959 
11520000    129.89025    299.58562     -2068799     -2068799   -2051594.9   -172.12453    5508392.6    102.59214    102.04354    526.16902    20548.135 
11530000    132.39025    299.61623   -2068776.5   -2068776.5   -2051570.6   -42.243936    5508403.1    102.59047    102.04539    526.16902    20120.444 
11540000    134.89025    299.41142   -2068767.9   -2068767.9   -2051573.8     112.1001      5508125    102.58394    102.04674    526.16902    19692.553 
11550000    137.39025    300.53601   -2068797.1   -2068797.1   -2051538.3    146.83112    5508214.3    102.59332    102.03907    526.16902    19265.032 
11560000    139.89025    300.07992   -2068802.7   -2068802.7   -2051570.1   -132.73628    5509242.4    102.59919    102.05227    526.16902     18837.14 
11570000    142.39025    300.31709   -2068790.9   -2068790.9   -2051544.7    235.47056    5509090.4    102.59718    102.05145    526.16902    18409.275 
11580000    144.89025    299.64743   -2068784.3   -2068784.3   -2051576.6    283.16565      5509200    102.60084    102.04985    526.16902    17981.463 
11590000    147.39025    300.24135   -2068808.8   -2068808.8     -2051567   -4.4768228    5509748.9    102.60015     102.0607    526.16902    17553.388 
11600000    149.89025    299.68569   -2068786.1   -2068786.1   -2051576.2    -56.45562    5509579.6    102.59593    102.06177    526.16902    17125.291 
11610000    152.39025    300.48659   -2068808.6   -2068808.6   -2051552.7   -195.86115    5509437.8    102.60668    102.04845    526.16902    16697.578 
11620000    154.89025    299.67887   -2068773.6   -2068773.6   -2051564.1   -45.371449      5508499    102.58715    102.05047    526.16902    16269.783 
11630000    157.39025    299.82246   -2068800.3   -2068800.3   -2051582.6    80.876892    5507976.2    102.58747    102.04047    526.16902    15842.105 
11640000    159.89025    300.07318   -2068790.4   -2068790.4   -2051558.3    16.614876    5508320.3    102.58079    102.05349    526.16902    15414.217 
11650000    162.39025    299.50124   -2068780.4   -2068780.4   -2051581.1   -122.00019    5508296.1    102.58332    102.05053    526.16902    14986.241 
11660000    164.89025    300.22996   -2068800.7   -2068800.7   -2051559.5   -114.44963    5509180.9    102.58957     102.0607    526.16902    14558.487 
11670000    167.39025    299.61153   -2068790.4   -2068790.4   -2051584.8    58.828589    5509398.7    102.58905    102.06525    526.16902    14130.634 
11680000    169.89025    300.32004   -2068798.9   -2068798.9   -2051552.5   -185.95846    5510249.7    102.60265    102.06749    526.16902    13702.849 
11690000    172.39025    299.99844   -2068813.4   -2068813.4   -2051585.6    90.700597    5509626.2    102.59755    102.06101    526.16902    13275.084 
11700000    174.89025    299.64919   -2068787.9   -2068787.9   -2051580.1    1.9586949      5509144    102.59009     102.0595    526.16902    12847.326 
11710000    177.39025     299.8842   -2068768.7   -2068768.7   -2051547.4   -87.482561    5509063.8    102.59287    102.05525    526.16902    12419.509 
11720000    179.89025    300.23653   -2068795.2   -2068795.2   -2051553.7   -116.37394    5508839.7    102.59638    102.04761    526.16902    11991.753 
11730000    182.39025    299.79824   -2068812.5   -2068812.5   -2051596.1    -35.11043    5508001.5    102.59073     102.0377    526.16902    11564.122 
11740000    184.89025    299.80121   -2068792.8   -2068792.8   -2051576.3    112.47603    5508556.4     102.5924    102.04632    526.16902    11136.594 
11750000    187.39025    300.14065   -2068796.5   -2068796.5   -2051560.4    133.90799    5508441.3    102.59435    102.04224    526.16902    10709.032 
11760000    189.89025    300.10385   -2068783.2   -2068783.2   -2051549.3   -112.65049    5509380.1    102.59748    102.05652    526.16902    10281.249 
11770000    192.39025     299.8727   -2068765.8   -2068765.8   -2051545.1   -143.19655    5509189.9     102.5983    102.05219    526.16902     9853.493 
11780000    194.89025    299.95035   -2068791.2   -2068791.2   -2051566.1   -31.482867    5509281.3    102.60653    102.04569    526.16902    9425.8014 
11790000    197.39025     300.4035   -2068806.7   -2068806.7   -2051555.5     226.8535    5509204.9    102.60573    102.04507    526.16902    8998.0495 
11800000    199.89025    300.01986   -2068781.1   -2068781.1     -2051552   -11.924713    5510437.7    102.60744     102.0662    526.16902    8570.2959 
11810000    202.39025     299.9458   -2068785.3   -2068785.3   -2051560.4    37.725629    5509506.8    102.59075    102.06556    526.16902     8142.617 
11820000    204.89025    299.95935   -2068794.4   -2068794.4   -2051568.7    38.414418    5508624.4    102.59265    102.04733    526.16902    7714.9354 
11830000    207.39025    299.77532   -2068769.3   -2068769.3   -2051554.2   -162.71466    5508014.7    102.58685     102.0418    526.16902    7287.4322 
11840000    209.89025    299.84329   -2068780.6   -2068780.6   -2051561.6   -103.40303    5508319.7    102.59143     102.0429    526.16902    6859.8208 
11850000    212.39025    300.00294   -2068787.3   -2068787.3   -2051559.2    29.091475    5508605.8    102.59493    102.04472    526.16902    6432.2101 
11860000    214.89025    299.97134   -2068796.8   -2068796.8   -2051570.5    91.549772      5509049    102.59171    102.05613    526.16902    6004.6671 
11870000    217.39025    300.07257   -2068782.1   -2068782.1     -2051550   -261.03557    5510117.1    102.60478    102.06292    526.16902    5577.1026 
11880000    219.89025    299.83061   -2068792.1   -2068792.1   -2051573.9   -70.124132    5510301.2    102.60724    102.06387    526.16902    5149.4864 
11890000    222.39025    299.97331   -2068802.8   -2068802.8   -2051576.4    188.61738    5509681.8    102.59998    102.05963    526.16902    4721.8419 
11900000    224.89025    299.97584   -2068801.1   -2068801.1   -2051574.5    230.85178    5509521.1    102.59691     102.0597    526.16902    4294.2383 
11910000    227.39025    300.13079   -2068789.8   -2068789.8   -2051554.3    192.97752    5509162.7    102.59272    102.05724    526.16902    3866.6238 
11920000    229.89025    299.77734   -2068772.6   -2068772.6   -2051557.4    -90.89825    5509040.3     102.5906    102.05707    526.16902    3439.0173 
11930000    232.39025    299.91227   -2068795.3   -2068795.3   -2051572.4   -293.92621    5508971.5    102.59567    102.05075    526.16902    3011.4508 
11940000    234.89025    300.16368   -2068781.5   -2068781.5   -2051544.1    60.108752    5507931.5    102.58701     102.0401    526.16902    2583.9264 
11950000    237.39025    299.89267     -2068782     -2068782   -2051560.2   -31.000154    5508209.4    102.58976    102.04251    526.16902    2156.3908 
11960000    239.89025    300.26709   -2068792.1   -2068792.1   -2051548.8    126.58158    5508085.3    102.58545     102.0445    526.16902      1728.86 
11970000    242.39025    299.82487   -2068781.3   -2068781.3   -2051563.4    162.82435      5509041    102.59322    102.05448    526.16902    1301.3333 
11980000    244.89025    300.10907   -2068779.8   -2068779.8   -2051545.6   -79.788931    5509934.5    102.60054    102.06375    526.16902    873.80788 
11990000    247.39025    299.68614   -2068791.2   -2068791.2   -2051581.2   -86.482453    5510407.5    102.60561    102.06747    526.16902    446.28754 
12000000    249.89025    299.88725   -2068799.9   -2068799.9   -2051578.4    173.09674    5509282.2    102.60015    102.05205    526.16902    18.768007 
12000439          250    300.00802   -2068809.1   -2068809.1   -2051580.7   -92.252086    5510320.4    102.60205    102.06939    526.16902            0 
Loop time of 42751.7 on 96 procs for 1000000 steps with 444272 atoms

Performance: 0.505 ns/day, 47.502 hours/ns, 23.391 timesteps/s
100.0% CPU use with 96 MPI tasks x 1 OpenMP threads

MPI task timing breakdown:
Section |  min time  |  avg time  |  max time  |%varavg| %total
---------------------------------------------------------------
Pair    | 11101      | 21157      | 41639      |5261.5 | 49.49
Neigh   | 22.699     | 60.479     | 76.586     | 204.0 |  0.14
Comm    | 489        | 8246.2     | 22255      |8553.4 | 19.29
Output  | 1.9132     | 1.9144     | 1.9445     |   0.2 |  0.00
Modify  | 454.43     | 13215      | 21180      |8254.7 | 30.91
Other   |            | 71.75      |            |       |  0.17

Nlocal:        4627.83 ave        5643 max        2208 min
Histogram: 12 0 0 0 0 0 33 3 27 21
Nghost:        9133.40 ave       10884 max        4920 min
Histogram: 12 0 0 0 0 4 32 0 9 39
Neighs:         0.00000 ave           0 max           0 min
Histogram: 96 0 0 0 0 0 0 0 0 0
FullNghs:      868003.0 ave 1.16281e+06 max      344587 min
Histogram: 12 0 0 0 12 11 25 0 6 30

Total # of neighbors = 83328290
Ave neighs/atom = 187.56143
Neighbor list builds = 2410
Dangerous builds = 0
System init for write_restart ...
System init for write_data ...
Total wall time: 11:52:33
