LAMMPS (29 Sep 2021)
  using 1 OpenMP thread(s) per MPI task
Reading data file ...
  orthogonal box = (-0.26132258 -0.26394554 0.0000000) to (101.47871 101.48133 719.80400)
  1 by 2 by 12 MPI processor grid
  reading atoms ...
  516124 atoms
  reading velocities ...
  516124 velocities
  read_data CPU = 1.088 seconds
258178 atoms in group g_left
257946 atoms in group g_right

CITE-CITE-CITE-CITE-CITE-CITE-CITE-CITE-CITE-CITE-CITE-CITE-CITE

Your simulation uses code contributions which should be cited:
- GPU package (short-range, long-range and three-body potentials):
The log file lists these citations in BibTeX format.

CITE-CITE-CITE-CITE-CITE-CITE-CITE-CITE-CITE-CITE-CITE-CITE-CITE


--------------------------------------------------------------------------
- Using acceleration for eam/alloy:
-  with 12 proc(s) per device.
-  Horizontal vector operations: ENABLED
-  Shared memory system: No
--------------------------------------------------------------------------
Device 0: Tesla V100-SXM2-32GB, 80 CUs, 28/32 GB, 1.5 GHZ (Mixed Precision)
Device 1: Tesla V100-SXM2-32GB, 80 CUs, 1.5 GHZ (Mixed Precision)
--------------------------------------------------------------------------

Initializing Device and compiling on process 0...Done.
Initializing Devices 0-1 on core 0...Done.
Initializing Devices 0-1 on core 1...Done.
Initializing Devices 0-1 on core 2...Done.
Initializing Devices 0-1 on core 3...Done.
Initializing Devices 0-1 on core 4...Done.
Initializing Devices 0-1 on core 5...Done.
Initializing Devices 0-1 on core 6...Done.
Initializing Devices 0-1 on core 7...Done.
Initializing Devices 0-1 on core 8...Done.
Initializing Devices 0-1 on core 9...Done.
Initializing Devices 0-1 on core 10...Done.
Initializing Devices 0-1 on core 11...Done.

Setting up Verlet run ...
  Unit style    : metal
  Current step  : 0
  Time step     : 0.00025
Per MPI rank memory allocation (min/avg/max) = 8.790 | 11.48 | 11.84 Mbytes
Step Time Temp Press PotEng KinEng TotEng Volume 
       0            0    7176.6336    65810.149   -1999067.5    478782.89   -1520284.6    7451099.8 
     100        0.025    7176.3561    65858.339     -1999100    478764.38   -1520335.7    7440748.2 
     200         0.05     7176.307    65952.014     -1999085     478761.1   -1520323.9    7430396.7 
     300        0.075    7176.8471    66039.055   -1999091.4    478797.14   -1520294.2    7420045.1 
     400          0.1    7176.4679    66120.375   -1999075.4    478771.84   -1520303.5    7409693.5 
     500        0.125    7176.3817    66199.405     -1999095    478766.09     -1520329      7399342 
     600         0.15    7176.3808    66290.443   -1999091.1    478766.03     -1520325    7388990.4 
     700        0.175    7176.5543    66371.784     -1999089     478777.6   -1520311.3    7378638.8 
     800          0.2    7176.0432    66459.618   -1999060.7    478743.51   -1520317.2    7368287.3 
     900        0.225    7176.2779     66539.71   -1999078.5    478759.16   -1520319.4    7357935.7 
    1000         0.25    7176.6341    66627.976   -1999084.1    478782.93   -1520301.2    7347584.1 
    1100        0.275    7177.0206    66721.532   -1999090.7    478808.72   -1520281.9    7337232.6 
    1200          0.3    7177.0809    66818.472   -1999102.7    478812.73     -1520290      7326881 
    1300        0.325    7176.4873    66937.509   -1999070.8    478773.13   -1520297.7    7316529.4 
    1400         0.35    7176.9646    67019.534   -1999082.3    478804.98   -1520277.3    7306177.9 
    1500        0.375    7177.3569    67107.688   -1999094.6    478831.15   -1520263.5    7295826.3 
    1600          0.4    7176.5507    67229.625   -1999046.3    478777.36   -1520268.9    7285474.7 
    1700        0.425    7177.4953    67310.662   -1999105.4    478840.38     -1520265    7275123.2 
    1800         0.45    7177.4518    67418.143   -1999084.7    478837.48   -1520247.2    7264771.6 
    1900        0.475    7177.7885    67528.655   -1999094.1    478859.94   -1520234.1      7254420 
    2000          0.5    7177.2152    67638.849   -1999060.7    478821.69     -1520239    7244068.5 
    2100        0.525    7177.4007    67703.536   -1999072.5    478834.07   -1520238.4    7233716.9 
    2200         0.55     7178.143    67765.902   -1999110.2     478883.6   -1520226.7    7223365.3 
    2300        0.575    7178.8721    67815.216     -1999166    478932.23   -1520233.8    7213013.7 
    2400          0.6    7183.3982    67829.604   -1999480.4    479234.19   -1520246.2    7202662.2 
    2500        0.625    7198.7868    67787.538   -2000495.4    480260.82   -1520234.6    7192310.6 
    2600         0.65    7182.8051    69212.901   -1999420.3    479194.62   -1520225.7      7181959 
    2700        0.675    7168.0033    70899.998   -1998441.9    478207.13   -1520234.8    7171607.5 
    2800          0.7    7138.9168    72956.731   -1996502.1    476266.65   -1520235.5    7161255.9 
    2900        0.725    7113.4931    75184.166   -1994785.1    474570.53   -1520214.6    7150904.3 
    3000         0.75    7093.8435    77231.462   -1993461.3    473259.62   -1520201.7    7140552.8 
    3100        0.775    7061.7618    79068.266   -1991331.9    471119.32   -1520212.6    7130201.2 
    3200          0.8    7040.0843    81310.192   -1989900.6    469673.12   -1520227.5    7119849.6 
    3300        0.825    7009.9573    83346.597   -1987888.1    467663.23   -1520224.9    7109498.1 
    3400         0.85    6985.5323    85426.489   -1986253.2    466033.74   -1520219.4    7099146.5 
    3500        0.875    6961.1574    87648.001   -1984627.2    464407.59   -1520219.6    7088794.9 
    3600          0.9    6934.5428    89807.398   -1982838.4    462632.02   -1520206.3    7078443.4 
    3700        0.925    6909.5659    91815.515   -1981154.4    460965.71   -1520188.7    7068091.8 
    3800         0.95    6885.1538    93922.022   -1979521.3    459337.07   -1520184.3    7057740.2 
    3900        0.975    6857.6403    96044.073   -1977701.2    457501.53   -1520199.7    7047388.7 
    4000            1    6834.4087    98058.647   -1976162.3    455951.65   -1520210.7    7037037.1 
    4100        1.025     6808.773     100202.8   -1974439.9    454241.39   -1520198.5    7026685.5 
    4200         1.05    6783.3372     102414.7   -1972731.5    452544.46   -1520187.1      7016334 
    4300        1.075    6758.1129    104543.74   -1971057.6    450861.65   -1520195.9    7005982.4 
    4400          1.1    6731.2638    106699.23   -1969280.5    449070.43   -1520210.1    6995630.8 
    4500        1.125    6706.3656    108857.63   -1967627.4    447409.37     -1520218    6985279.3 
    4600         1.15    6679.9985    111062.18     -1965883    445650.31   -1520232.6    6974927.7 
    4700        1.175    6654.3635    113255.87   -1964191.9     443940.1   -1520251.8    6964576.1 
    4800          1.2    6628.3194    115436.32   -1962451.6    442202.59     -1520249    6954224.6 
    4900        1.225    6602.3969    117649.45   -1960705.5    440473.19   -1520232.3      6943873 
    5000         1.25    6576.7203    119822.94     -1958996     438760.2   -1520235.8    6933521.4 
    5100        1.275    6549.7776    122017.18   -1957211.8    436962.74     -1520249    6923169.9 
    5200          1.3    6526.4897    124196.08   -1955648.7    435409.11   -1520239.6    6912818.3 
    5300        1.325    6503.0292    126471.68   -1954064.8    433843.96   -1520220.9    6902466.7 
    5400         1.35    6475.0937    128650.03   -1952215.3    431980.27     -1520235    6892115.2 
    5500        1.375    6437.8914    131290.38   -1949767.2    429498.35   -1520268.9    6881763.6 
    5600          1.4    6402.5746    133573.84   -1947418.1    427142.22   -1520275.9      6871412 
    5700        1.425    6360.0181    135673.87   -1944564.7     424303.1   -1520261.6    6861060.4 
    5800         1.45    6323.3183    138311.99   -1942101.6     421854.7   -1520246.9    6850708.9 
    5900        1.475    6289.1119    140856.41   -1939806.9    419572.65   -1520234.3    6840357.3 
    6000          1.5    6245.8408    143225.46   -1936909.4    416685.86   -1520223.5    6830005.7 
    6100        1.525     6208.336    145792.89   -1934410.1    414183.76   -1520226.3    6819654.2 
    6200         1.55    6170.8338     148206.3   -1931915.1    411681.83   -1520233.2    6809302.6 
    6300        1.575    6131.8087    150587.38   -1929293.1    409078.31   -1520214.8      6798951 
    6400          1.6    6093.1544    153299.91   -1926689.3    406499.52   -1520189.8    6788599.5 
    6500        1.625    6054.8611    155825.04   -1924136.4    403944.81   -1520191.6    6778247.9 
    6600         1.65    6017.1438    158290.76   -1921636.6    401428.54     -1520208    6767896.3 
    6700        1.675    5974.7839    161010.66   -1918805.6    398602.53     -1520203    6757544.8 
    6800          1.7    5938.8907    163721.47   -1916403.7    396207.95   -1520195.8    6747193.2 
    6900        1.725    5897.5372    166332.85     -1913662    393449.09   -1520212.9    6736841.6 
    7000         1.75    5860.1076    169088.56   -1911182.6       390952   -1520230.6    6726490.1 
    7100        1.775    5819.4464    171807.66   -1908466.5    388239.33   -1520227.2    6716138.5 
    7200          1.8    5777.8881    174638.13   -1905679.9     385466.8   -1520213.1    6705786.9 
    7300        1.825     5740.041    177659.86   -1903149.6    382941.87   -1520207.8    6695435.4 
    7400         1.85     5701.996     180534.4   -1900603.9    380403.72   -1520200.2    6685083.8 
    7500        1.875     5665.213     183282.8   -1898143.8    377949.78     -1520194    6674732.2 
    7600          1.9    5633.1108    185963.23   -1896007.6    375808.11   -1520199.5    6664380.7 
    7700        1.925    5606.3353    188465.52   -1894238.7     374021.8   -1520216.9    6654029.1 
    7800         1.95    5573.4304    191212.04     -1892050    371826.58   -1520223.4    6643677.5 
    7900        1.975      5549.68    193376.44   -1890458.6     370242.1   -1520216.5      6633326 
    8000            2    5545.7146    194640.38   -1890195.1    369977.54   -1520217.5    6622974.4 
    8100        2.025    5532.6561    195559.07   -1889344.3    369106.36   -1520237.9    6612622.8 
    8200         2.05    5511.6019    196972.01   -1887949.2    367701.74   -1520247.5    6602271.3 
    8300        2.075    5513.1014    198624.34     -1888041    367801.78   -1520239.2    6591919.7 
    8400          2.1    5493.7379    200532.66   -1886739.5    366509.96   -1520229.5    6581568.1 
    8500        2.125    5486.5751    202164.71   -1886271.1     366032.1     -1520239    6571216.6 
    8600         2.15      5483.66    203474.88   -1886082.8    365837.63   -1520245.1      6560865 
    8700        2.175    5459.7062    205161.64   -1884482.9    364239.57   -1520243.3    6550513.4 
    8800          2.2    5470.1453    206773.88   -1885172.9       364936   -1520236.9    6540161.9 
    8900        2.225     5447.841    208779.36   -1883685.8       363448   -1520237.8    6529810.3 
    9000         2.25     5439.343    210897.06   -1883119.5    362881.06   -1520238.5    6519458.7 
    9100        2.275    5430.2605    212999.94   -1882511.2    362275.12   -1520236.1    6509107.1 
    9200          2.3    5406.9555    215330.21   -1880952.7    360720.35   -1520232.3    6498755.6 
    9300        2.325    5402.8392    217554.27   -1880674.9    360445.74   -1520229.1      6488404 
    9400         2.35    5378.4796    220046.04   -1879038.4     358820.6   -1520217.8    6478052.4 
    9500        2.375    5372.1101    222430.66   -1878606.3    358395.67   -1520210.6    6467700.9 
    9600          2.4    5351.5962    224638.16     -1877251     357027.1   -1520223.9    6457349.3 
    9700        2.425    5333.1357    226954.17   -1876044.6    355795.53     -1520249    6446997.7 
    9800         2.45    5316.9019    229411.15   -1874964.3    354712.51   -1520251.8    6436646.2 
    9900        2.475    5296.5508    232115.01     -1873603     353354.8   -1520248.2    6426294.6 
   10000          2.5    5279.8715    234753.95   -1872503.5    352242.05   -1520261.4      6415943 
   10100        2.525    5255.0459     237402.3   -1870853.8    350585.83     -1520268    6405591.5 
   10200         2.55    5231.4128    240381.41   -1869252.5    349009.17   -1520243.3    6395239.9 
   10300        2.575    5199.3681    243525.81   -1867091.2    346871.34   -1520219.9    6384888.3 
   10400          2.6    5170.9247    246678.65   -1865197.6    344973.76   -1520223.8    6374536.8 
   10500        2.625    5137.9991    249812.69   -1862994.1    342777.16   -1520216.9    6364185.2 
   10600         2.65    5105.5408    252873.11   -1860815.1    340611.73   -1520203.3    6353833.6 
   10700        2.675    5073.9573    256141.22   -1858725.4    338504.67   -1520220.7    6343482.1 
   10800          2.7    5039.2995    259588.77   -1856434.6     336192.5   -1520242.1    6333130.5 
   10900        2.725    5000.8622    263266.76   -1853863.9    333628.19   -1520235.7    6322778.9 
   11000         2.75    4955.1249    267420.84   -1850797.7    330576.87   -1520220.8    6312427.4 
   11100        2.775    4902.5574    271595.58   -1847307.9    327069.87     -1520238    6302075.8 
   11200          2.8    4853.2988    276196.04     -1844050    323783.63   -1520266.4    6291724.2 
   11300        2.825    4799.5073    280746.61   -1840468.6    320194.97   -1520273.7    6281372.7 
   11400         2.85     4743.446    285355.87   -1836725.7    316454.89   -1520270.8    6271021.1 
   11500        2.875    4691.3071    290281.88   -1833247.5    312976.49     -1520271    6260669.5 
   11600          2.9    4636.9564    295211.08   -1829610.6    309350.53   -1520260.1      6250318 
   11700        2.925    4582.4425    299674.09   -1825962.3    305713.68   -1520248.6    6239966.4 
   11800         2.95    4529.3047    304207.91   -1822437.9    302168.64   -1520269.2    6229614.8 
   11900        2.975    4478.9279    308686.43     -1819112     298807.8   -1520304.2    6219263.3 
   12000            3    4432.7924    312521.45   -1816040.3    295729.91   -1520310.3    6208911.7 
   12100        3.025    4387.2259    316258.49   -1812967.9    292689.97     -1520278    6198560.1 
   12200         3.05    4342.4375    319859.28   -1809947.7    289701.95   -1520245.8    6188208.6 
   12300        3.075     4299.964    323397.88   -1807113.4    286868.37     -1520245      6177857 
   12400          3.1    4259.6382    326831.54   -1804436.6    284178.07   -1520258.5    6167505.4 
   12500        3.125    4226.7811    329940.58   -1802245.9    281986.04   -1520259.9    6157153.8 
   12600         3.15    4196.6467    332705.14   -1800222.8    279975.65   -1520247.1    6146802.3 
   12700        3.175    4166.0379     335522.6   -1798173.9    277933.61   -1520240.3    6136450.7 
   12800          3.2    4133.5859     338382.9   -1796016.7     275768.6   -1520248.1    6126099.1 
   12900        3.225    4098.8954    341207.04   -1793697.8    273454.25   -1520243.5    6115747.6 
   13000         3.25    4071.8393    344123.31   -1791873.6    271649.23   -1520224.4      6105396 
   13100        3.275    4041.0209    346968.35   -1789812.6    269593.21   -1520219.4    6095044.4 
   13200          3.3    4018.7926    349495.08   -1788334.7    268110.27   -1520224.5    6084692.9 
   13300        3.325     3991.328    351937.83   -1786484.1    266277.99   -1520206.1    6074341.3 
   13400         3.35    3968.7941    354536.41   -1784961.9    264774.66   -1520187.2    6063989.7 
   13500        3.375    3946.2968    356968.95   -1783465.4    263273.77   -1520191.6    6053638.2 
   13600          3.4    3941.7995    358778.12     -1783165    262973.74   -1520191.3    6043286.6 
   13700        3.425    3934.7666    360001.63   -1782670.7    262504.54   -1520166.2      6032935 
   13800         3.45     3924.702    361464.65   -1781984.6     261833.1   -1520151.5    6022583.5 
   13900        3.475     3925.697    363208.79   -1782042.2    261899.48   -1520142.7    6012231.9 
   14000          3.5    3918.5631    365191.81   -1781556.6    261423.55     -1520133    6001880.3 
   14100        3.525     3914.465    367070.37   -1781278.9    261150.14   -1520128.8    5991528.8 
   14200         3.55    3916.6844    368571.42   -1781440.7    261298.21   -1520142.5    5981177.2 
   14300        3.575    3908.6438    370310.51   -1780909.3    260761.78   -1520147.6    5970825.6 
   14400          3.6    3915.9737    371865.01   -1781377.7    261250.79   -1520126.9    5960474.1 
   14500        3.625     3908.969    373573.83   -1780891.3    260783.48   -1520107.8    5950122.5 
   14600         3.65     3908.816    375327.49     -1780876    260773.27   -1520102.8    5939770.9 
   14700        3.675    3904.3781    376962.32   -1780587.6     260477.2   -1520110.4    5929419.4 
   14800          3.7    3894.0001    378290.06   -1779916.6    259784.84   -1520131.7    5919067.8 
   14900        3.725    3897.0719    379151.73   -1780134.1    259989.78   -1520144.3    5908716.2 
   15000         3.75    3886.5989    380349.09   -1779414.1    259291.08     -1520123    5898364.7 
   15100        3.775    3884.0343    381634.39     -1779220    259119.98     -1520100    5888013.1 
   15200          3.8    3870.4358     383437.2   -1778317.8    258212.77   -1520105.1    5877661.5 
   15300        3.825    3859.4337    385693.89   -1777594.6    257478.78   -1520115.8      5867310 
   15400         3.85    3836.8767    388650.55   -1776087.7    255973.91   -1520113.8    5856958.4 
   15500        3.875    3802.7539    391247.48   -1773807.5    253697.43   -1520110.1    5846606.8 
   15600          3.9     3780.871    394480.18   -1772350.6    252237.54   -1520113.1    5836255.3 
   15700        3.925    3746.8649    397948.79   -1770097.5    249968.85   -1520128.6    5825903.7 
   15800         3.95       3720.1    401114.79   -1768342.3    248183.25   -1520159.1    5815552.1 
   15900        3.975    3687.7678    404811.88   -1766212.4    246026.23   -1520186.1    5805200.5 
   16000            4     3654.101    408310.12   -1763962.9    243780.18   -1520182.8      5794849 
   16100        4.025    3618.9348    411573.75   -1761599.9     241434.1   -1520165.8    5784497.4 
   16200         4.05    3579.8247    415289.96     -1758996     238824.9   -1520171.1    5774145.8 
   16300        4.075    3540.4815    419394.59     -1756391    236200.16   -1520190.9    5763794.3 
   16400          4.1    3490.6441    423282.91   -1753073.6     232875.3   -1520198.3    5753442.7 
   16500        4.125    3448.4642    427595.14   -1750246.5     230061.3   -1520185.2    5743091.1 
   16600         4.15    3396.8306    431999.57   -1746801.4    226616.61   -1520184.7    5732739.6 
   16700        4.175    3340.7349     436516.8   -1743077.6    222874.24   -1520203.4      5722388 
   16800          4.2    3282.3696    441721.26   -1739192.8    218980.44   -1520212.3    5712036.4 
   16900        4.225    3219.8649    447121.59   -1735004.2     214810.5   -1520193.7    5701684.9 
   17000         4.25    3162.7365    452637.51   -1731178.2    210999.22     -1520179    5691333.3 
   17100        4.275    3104.0726    458183.07   -1727274.9    207085.51   -1520189.4    5680981.7 
   17200          4.3    3044.8746    463764.95   -1723343.1    203136.17   -1520206.9    5670630.2 
   17300        4.325    2989.7256    469240.27   -1719661.7    199456.95   -1520204.8    5660278.6 
   17400         4.35    2935.3576    474409.15   -1716023.3    195829.84   -1520193.5      5649927 
   17500        4.375    2878.0121    479564.18   -1712194.3    192004.09   -1520190.2    5639575.5 
   17600          4.4    2824.0088    485069.31   -1708586.7     188401.3   -1520185.4    5629223.9 
   17700        4.425    2769.1714     490459.4   -1704917.2    184742.87   -1520174.3    5618872.3 
   17800         4.45    2725.4813     494939.3   -1701986.1    181828.13   -1520157.9    5608520.8 
   17900        4.475    2702.3078     498204.9   -1700430.1    180282.12   -1520147.9    5598169.2 
   18000          4.5    2667.3057    500921.28   -1698102.5    177946.99   -1520155.5    5587817.6 
   18100        4.525    2632.3566    504113.94   -1695787.4    175615.39     -1520172    5577466.1 
   18200         4.55    2613.2073    507429.86     -1694516    174337.86   -1520178.2    5567114.5 
   18300        4.575    2577.4774    510972.18   -1692123.9    171954.17   -1520169.7    5556762.9 
   18400          4.6     2551.845    514143.86   -1690420.3    170244.13   -1520176.2    5546411.4 
   18500        4.625    2531.2358    517401.19   -1689056.7    168869.21   -1520187.5    5536059.8 
   18600         4.65    2493.0554    521048.87   -1686501.4    166322.03   -1520179.4    5525708.2 
   18700        4.675    2490.7262    524654.58   -1686321.5    166166.64   -1520154.9    5515356.7 
   18800          4.7    2456.2703    527927.05     -1684016    163867.94   -1520148.1    5505005.1 
   18900        4.725    2450.8052    530728.63   -1683662.1    163503.34   -1520158.8    5494653.5 
   19000         4.75    2430.3489    533108.44   -1682297.2    162138.62   -1520158.6      5484302 
   19100        4.775    2418.3991    535923.05   -1681476.8     161341.4   -1520135.4    5473950.4 
   19200          4.8    2410.1399    538873.16     -1680895    160790.39   -1520104.6    5463598.8 
   19300        4.825    2394.1604    542121.31   -1679825.8    159724.34   -1520101.5    5453247.2 
   19400         4.85    2402.8357    544623.97   -1680427.9     160303.1   -1520124.8    5442895.7 
   19500        4.875    2399.4423    546407.95   -1680216.6    160076.71   -1520139.9    5432544.1 
   19600          4.9    2404.5915    548079.15   -1680546.6    160420.24   -1520126.4    5422192.5 
   19700        4.925    2406.2733     550174.3   -1680647.1    160532.44   -1520114.7      5411841 
   19800         4.95    2410.9569    552537.04   -1680960.7     160844.9   -1520115.8    5401489.4 
   19900        4.975    2409.5867    555232.62   -1680863.4    160753.49   -1520109.9    5391137.8 
   20000            5    2409.8934     557641.8   -1680875.2    160773.95   -1520101.2    5380786.3 
   20100        5.025     2409.329    560022.54   -1680846.3     160736.3     -1520110    5370434.7 
   20200         5.05    2403.3082    562365.89   -1680452.4    160334.63   -1520117.8    5360083.1 
   20300        5.075     2404.032    564730.06   -1680488.9    160382.91     -1520106    5349731.6 
   20400          5.1    2393.2255    566973.02   -1679780.1    159661.97   -1520118.2      5339380 
   20500        5.125    2394.7673    568788.32   -1679919.3    159764.82   -1520154.5    5329028.4 
   20600         5.15    2387.2996    570706.53   -1679422.2    159266.63   -1520155.5    5318676.9 
   20700        5.175    2378.8807    572863.66   -1678822.9    158704.97   -1520117.9    5308325.3 
   20800          5.2    2361.2205    575629.65   -1677615.2    157526.78   -1520088.4    5297973.7 
   20900        5.225    2329.5733    579514.37   -1675507.4    155415.46   -1520091.9    5287622.2 
   21000         5.25    2294.1341    583729.37   -1673144.2    153051.17   -1520093.1    5277270.6 
   21100        5.275     2254.751    588195.96   -1670501.6    150423.76   -1520077.8      5266919 
   21200          5.3    2218.0103    592719.03   -1668041.5    147972.63   -1520068.9    5256567.5 
   21300        5.325    2165.7265     597401.5     -1664557    144484.57   -1520072.5    5246215.9 
   21400         5.35    2131.5907    602586.24   -1662277.3    142207.23   -1520070.1    5235864.3 
   21500        5.375    2076.7094    607527.75   -1658611.9    138545.87     -1520066    5225512.8 
   21600          5.4    2032.3064    612489.58   -1655664.6    135583.56     -1520081    5215161.2 
   21700        5.425    1980.5175    617648.61   -1652234.2    132128.51   -1520105.7    5204809.6 
   21800         5.45    1931.2711    622750.16   -1648951.4    128843.08   -1520108.3    5194458.1 
   21900        5.475    1881.2558    627734.86   -1645609.4    125506.35   -1520103.1    5184106.5 
   22000          5.5    1835.2701    633023.97   -1642541.8    122438.46   -1520103.3    5173754.9 
   22100        5.525    1787.3385    638494.99   -1639325.6    119240.74   -1520084.9    5163403.4 
   22200         5.55    1737.2156     643759.9   -1635931.4    115896.83   -1520034.6    5153051.8 
   22300        5.575    1694.3048     649142.3   -1633002.5    113034.08   -1519968.4    5142700.2 
   22400          5.6    1645.6467     654713.6   -1629620.3    109787.89   -1519832.4    5132348.7 
   22500        5.625    1604.9343    659995.52   -1626740.1     107071.8   -1519668.3    5121997.1 
   22600         5.65    1562.9665    665468.88   -1623480.5    104271.96   -1519208.5    5111645.5 
   22700        5.675    1562.5973    672023.71   -1620202.6    104247.32   -1515955.3    5101293.9 
   22800          5.7    1596.8325    679426.88   -1616987.8     106531.3   -1510456.6    5090942.4 
   22900        5.725    1626.2694    686529.57     -1613543    108495.15   -1505047.8    5080590.8 
   23000         5.75    1631.5095    694739.55   -1608978.8    108844.75   -1500134.1    5070239.2 
   23100        5.775    1561.1133    704850.64   -1599485.2    104148.32   -1495336.9    5059887.7 
   23200          5.8    1552.2153    715438.21   -1592733.4     103554.7   -1489178.7    5049536.1 
   23300        5.825    1551.6833    724110.25   -1584410.9    103519.21   -1480891.7    5039184.5 
   23400         5.85    1623.5415    731911.73   -1577840.3    108313.17   -1469527.1      5028833 
   23500        5.875     1685.113    739507.92   -1569386.3    112420.85   -1456965.4    5018481.4 
   23600          5.9    1736.8418    747932.77   -1563163.9     115871.9     -1447292    5008129.8 
   23700        5.925    1769.5009    757119.12   -1555351.9    118050.72   -1437301.2    4997778.3 
   23800         5.95    1859.7605    765717.14   -1548735.6    124072.31   -1424663.3    4987426.7 
   23900        5.975    1930.0902    774614.53   -1541375.9     128764.3   -1412611.6    4977075.1 
   24000            6    1998.6529    783311.03   -1534800.4     133338.4     -1401462    4966723.6 
   24100        6.025    2045.7758    791081.73   -1527387.2    136482.16     -1390905      4956372 
   24200         6.05    2141.3988    797782.78   -1521915.4    142861.57   -1379053.8    4946020.4 
   24300        6.075    2258.7286    802034.44     -1516645    150689.12   -1365955.9    4935668.9 
   24400          6.1     2325.913    805333.19     -1509807    155171.27   -1354635.7    4925317.3 
   24500        6.125    2379.1702    809022.97   -1502307.2    158724.28   -1343582.9    4914965.7 
   24600         6.15    2482.0946    813275.77     -1496116    165590.79   -1330525.2    4904614.2 
   24700        6.175    2559.8576    817924.96   -1489777.6    170778.68   -1318998.9    4894262.6 
   24800          6.2    2609.9583    822984.24   -1482911.4    174121.11   -1308790.3      4883911 
   24900        6.225      2702.96    829620.63   -1475750.8    180325.64   -1295425.2    4873559.5 
   25000         6.25    2778.2753    837086.61   -1468047.4    185350.23   -1282697.2    4863207.9 
   25100        6.275    2835.0365    845567.25   -1460077.8    189137.01   -1270940.8    4852856.3 
   25200          6.3    2869.1346    855039.48     -1451396    191411.83   -1259984.2    4842504.8 
   25300        6.325    2899.0741       865385   -1442650.4    193409.22   -1249241.1    4832153.2 
   25400         6.35    2916.7034    876068.21   -1433800.9    194585.34   -1239215.5    4821801.6 
   25500        6.375    2912.0656     886797.1   -1424528.2    194275.94   -1230252.2    4811450.1 
   25600          6.4    2912.5984    898041.57   -1415809.7    194311.48   -1221498.3    4801098.5 
   25700        6.425    2920.4166    909959.78   -1407160.9    194833.07   -1212327.9    4790746.9 
   25800         6.45    2940.3156    922626.01   -1398657.8    196160.61   -1202497.1    4780395.4 
   25900        6.475    2979.1244    935728.28   -1390264.1    198749.71   -1191514.4    4770043.8 
   26000          6.5    3056.4356    949106.22   -1381879.3    203907.46   -1177971.8    4759692.2 
   26100        6.525    3161.1378    962417.58   -1373643.7    210892.57   -1162751.1    4749340.6 
   26200         6.55    3269.1741    974745.84     -1365932    218100.12   -1147831.9    4738989.1 
   26300        6.575    3367.4913    986094.26   -1358304.2    224659.26   -1133644.9    4728637.5 
   26400          6.6    3471.7452    997782.91   -1350640.5    231614.47   -1119026.1    4718285.9 
   26500        6.625    3583.4039      1010093     -1343015    239063.69   -1103951.3    4707934.4 
   26600         6.65    3699.9756    1022250.2   -1334902.8    246840.67   -1088062.2    4697582.8 
   26700        6.675    3822.7632    1033886.2   -1326875.3    255032.34   -1071842.9    4687231.2 
   26800          6.7      3934.98    1045309.4   -1318623.5    262518.78   -1056104.7    4676879.7 
   26900        6.725    4040.5323    1056738.2   -1310221.7    269560.61   -1040661.1    4666528.1 
   27000         6.75     4142.154    1067937.5   -1301482.9    276340.22   -1025142.7    4656176.5 
   27100        6.775    4245.3051    1078310.5   -1292636.3    283221.85   -1009414.5      4645825 
   27200          6.8    4357.7235    1086902.8   -1284298.8    290721.75   -993577.08    4635473.4 
   27300        6.825    4472.9551    1094325.4   -1276327.3    298409.33   -977918.01    4625121.8 
   27400         6.85    4581.0985    1101443.3     -1268379    305624.02   -962755.02    4614770.3 
   27500        6.875    4680.9384    1108674.4   -1260438.3    312284.75   -948153.54    4604418.7 
   27600          6.9     4780.447    1116858.3   -1252578.1    318923.38   -933654.69    4594067.1 
   27700        6.925    4866.9424    1125267.2   -1244038.8    324693.85   -919344.96    4583715.6 
   27800         6.95    4948.3762    1133889.6   -1235363.9    330126.63   -905237.27      4573364 
   27900        6.975      5025.96    1143045.6   -1226609.8    335302.57   -891307.24    4563012.4 
   28000            7    5088.0521    1153130.8   -1216964.1    339444.99   -877519.15    4552660.9 
   28100        7.025    5141.2425    1164410.8   -1207121.9    342993.54   -864128.39    4542309.3 
   28200         7.05    5182.0935      1176770     -1197157    345718.88   -851438.12    4531957.7 
   28300        7.075     5205.481    1190045.4   -1186819.5    347279.16    -839540.3    4521606.2 
   28400          7.1    5222.9605    1203371.9   -1176944.9    348445.28   -828499.64    4511254.6 
   28500        7.125    5231.0802      1216768   -1167108.5    348986.98    -818121.5      4500903 
   28600         7.15     5231.435    1229860.5   -1157334.9    349010.66   -808324.24    4490551.5 
   28700        7.175    5229.3616    1243055.7   -1147762.3    348872.33   -798890.01    4480199.9 
   28800          7.2    5225.1002    1255893.2   -1138308.1    348588.03   -789720.07    4469848.3 
   28900        7.225    5226.6102      1269249   -1129560.2    348688.77   -780871.38    4459496.8 
   29000         7.25     5223.023    1282398.9   -1120525.6    348449.46   -772076.18    4449145.2 
   29100        7.275    5225.0759    1295584.6   -1112035.6    348586.42   -763449.21    4438793.6 
   29200          7.3    5230.3633    1308826.5   -1103940.4    348939.16   -755001.25      4428442 
   29300        7.325    5243.6169    1321298.5   -1096296.5    349823.36   -746473.15    4418090.5 
   29400         7.35    5263.0569    1332894.9     -1089046    351120.29   -737925.74    4407738.9 
   29500        7.375    5305.3255    1343608.8   -1082903.4     353940.2   -728963.21    4397387.3 
   29600          7.4    5357.9558    1352533.6   -1076998.5    357451.38   -719547.14    4387035.8 
   29700        7.425    5416.5384    1361078.6   -1071038.8    361359.67   -709679.13    4376684.2 
   29800         7.45    5482.8272    1370124.9   -1065306.3    365782.07   -699524.19    4366332.6 
   29900        7.475    5547.6939    1379523.8   -1059443.3    370109.59   -689333.75    4355981.1 
   30000          7.5    5626.6402    1388098.9   -1054242.7    375376.43   -678866.28    4345629.5 
   30100        7.525    5702.1781    1396481.3   -1048771.6    380415.87   -668355.71    4335277.9 
   30200         7.55    5788.9203    1404847.8   -1043759.7     386202.8   -657556.86    4324926.4 
   30300        7.575    5882.0572    1413208.4   -1038806.6    392416.35   -646390.24    4314574.8 
   30400          7.6    5975.7961    1421664.8   -1033850.3    398670.06   -635180.23    4304223.2 
   30500        7.625    6072.4568    1430134.7   -1029029.3     405118.7   -623910.63    4293871.7 
   30600         7.65    6150.2302    1439163.2   -1023109.2    410307.28   -612801.87    4283520.1 
   30700        7.675    6225.1673    1448954.5   -1017108.6    415306.64      -601802    4273168.5 
   30800          7.7    6288.3404    1459997.5   -1010337.6    419521.18   -590816.42      4262817 
   30900        7.725    6354.5532    1471158.6   -1003708.1    423938.51   -579769.58    4252465.4 
   31000         7.75    6411.3368    1482920.1   -996350.62    427726.78   -568623.84    4242113.8 
   31100        7.775    6473.9672    1495752.3   -988941.96    431905.11   -557036.85    4231762.3 
   31200          7.8     6530.409    1508432.1   -981008.81    435670.58   -545338.23    4221410.7 
   31300        7.825    6588.7484    1521696.2    -972834.2    439562.64   -533271.56    4211059.1 
   31400         7.85    6642.8754      1535501   -964100.35    443173.68   -520926.67    4200707.6 
   31500        7.875    6690.1682    1550283.9   -954230.53    446328.77   -507901.75      4190356 
   31600          7.9    6744.5533    1565329.3   -944077.82    449957.03   -494120.79    4180004.4 
   31700        7.925    6797.9286    1581359.8    -933229.3    453517.92   -479711.38    4169652.9 
   31800         7.95     6846.589    1597687.5   -921839.36    456764.25   -465075.11    4159301.3 
   31900        7.975    6901.0561    1613710.2   -910511.93    460397.98   -450113.95    4148949.7 
   32000            8    6953.5405    1629267.9   -898848.91    463899.43   -434949.48    4138598.2 
   32100        8.025    7020.0974    1644376.9   -887975.89    468339.72   -419636.17    4128246.6 
   32200         8.05    7082.3392    1659449.6   -876753.49    472492.13   -404261.37      4117895 
   32300        8.075    7148.8346      1674685   -865900.27    476928.31   -388971.96    4107543.5 
   32400          8.1    7216.5652    1690079.4   -855036.39     481446.9    -373589.5    4097191.9 
   32500        8.125    7282.7264    1706101.7   -844463.84    485860.79   -358603.05    4086840.3 
   32600         8.15    7352.7416    1722134.1   -834055.57    490531.78   -343523.78    4076488.7 
   32700        8.175    7420.3717    1738455.2   -823599.63    495043.67   -328555.96    4066137.2 
   32800          8.2    7494.3856      1754000   -813765.09    499981.44   -313783.65    4055785.6 
   32900        8.225    7571.9063    1768019.3   -804270.89    505153.17   -299117.71      4045434 
   33000         8.25    7663.6917    1782092.8   -795727.32    511276.55   -284450.77    4035082.5 
   33100        8.275    7754.3341    1796944.9   -787201.67    517323.68   -269877.98    4024730.9 
   33200          8.3     7866.186    1813018.7   -780106.41    524785.78   -255320.62    4014379.3 
   33300        8.325    7977.5506    1829383.7   -772969.35    532215.38   -240753.97    4004027.8 
   33400         8.35    8098.5657    1845920.2   -766596.47    540288.79   -226307.68    3993676.2 
   33500        8.375    8227.5763    1861837.9   -760626.74    548895.63   -211731.11    3983324.6 
   33600          8.4    8356.7231      1876081   -754822.29    557511.55   -197310.75    3972973.1 
   33700        8.425    8490.9428    1890294.2   -749631.15     566465.9   -183165.25    3962621.5 
   33800         8.45     8621.754    1903684.1   -744565.17    575192.85   -169372.32    3952269.9 
   33900        8.475     8747.888    1916702.6   -739547.31    583607.77   -155939.54    3941918.4 
   34000          8.5    8864.6743    1930033.4   -734200.79    591399.07   -142801.72    3931566.8 
   34100        8.525    8971.7994      1942805   -728470.82    598545.82      -129925    3921215.2 
   34200         8.55    9059.1854    1955658.3   -721857.14     604375.7   -117481.43    3910863.7 
   34300        8.575    9142.7889    1968471.5   -715320.66    609953.24   -105367.42    3900512.1 
   34400          8.6    9212.9039    1979459.4   -708087.51    614630.91   -93456.607    3890160.5 
   34500        8.625    9268.5788    1990230.6   -700017.54    618345.21   -81672.333      3879809 
   34600         8.65    9288.9572    2001968.3   -689863.45    619704.74   -70158.717    3869457.4 
   34700        8.675    9296.0118    2015294.3   -679057.78    620175.38   -58882.405    3859105.8 
   34800          8.7    9268.4369    2029823.7   -666162.15    618335.74   -47826.409    3848754.3 
   34900        8.725    9214.7652    2047190.5   -651806.36    614755.08   -37051.282    3838402.7 
   35000         8.75    9151.5036    2066096.6   -637051.89    610534.64   -26517.256    3828051.1 
   35100        8.775    9070.2407    2085640.1   -621053.81    605113.25    -15940.56    3817699.6 
   35200          8.8    8977.2624    2106292.6   -604511.37    598910.29   -5601.0853      3807348 
   35300        8.825    8871.1741    2127720.5   -587223.71     591832.7    4608.9837    3796996.4 
   35400         8.85    8744.3023      2151108   -568641.34    583368.55    14727.214    3786644.9 
   35500        8.875    8590.3762    2177601.8   -548382.13    573099.51    24717.381    3776293.3 
   35600          8.9    8392.2049    2206526.6   -525403.53    559878.68    34475.143    3765941.7 
   35700        8.925    8195.0356    2233555.3   -502713.51     546724.7    44011.189    3755590.2 
   35800         8.95    7994.3379    2260817.6   -479910.08    533335.33    53425.247    3745238.6 
   35900        8.975    7791.1972    2287717.9   -457206.98    519782.97    62575.995      3734887 
   36000            9    7597.8024    2312265.6   -435208.43     506880.8    71672.377    3724535.4 
   36100        9.025    7409.9589    2336933.3   -413618.93    494348.99    80730.064    3714183.9 
   36200         9.05    7232.4812    2360807.4   -392815.99    482508.72    89692.729    3703832.3 
   36300        9.075    7070.8578    2383699.6   -372933.98    471726.15    98792.175    3693480.7 
   36400          9.1    6940.5268    2405579.6   -355133.47    463031.23    107897.77    3683129.2 
   36500        9.125    6833.9806    2426061.4   -338779.26     455923.1    117143.83    3672777.6 
   36600         9.15    6770.9853    2444298.2   -325149.71    451720.42     126570.7      3662426 
   36700        9.175    6746.9517    2459118.3   -313827.19    450117.04    136289.84    3652074.5 
   36800          9.2    6740.1182    2472886.4   -303673.57    449661.15    145987.58    3641722.9 
   36900        9.225    6737.5851      2485817   -293328.78    449492.15    156163.38    3631371.3 
   37000         9.25    6751.5627    2499070.2    -283928.3    450424.66    166496.35    3621019.8 
   37100        9.275    6760.6481    2512729.8   -274057.84    451030.78    176972.94    3610668.2 
   37200          9.3     6771.073    2527784.5   -263729.84    451726.27    187996.43    3600316.6 
   37300        9.325    6774.1273    2544031.1   -252122.31    451930.04    199807.72    3589965.1 
   37400         9.35    6772.2584    2562958.6   -239265.91    451805.35    212539.44    3579613.5 
   37500        9.375    6744.0254    2586233.7   -223972.36    449921.81    225949.45    3569261.9 
   37600          9.4    6677.9845    2615012.1    -205783.3    445515.95    239732.65    3558910.4 
   37700        9.425    6578.9571    2645347.4   -185174.99    438909.43    253734.44    3548558.8 
   37800         9.45    6452.9186    2674936.2   -162695.14    430500.88    267805.74    3538207.2 
   37900        9.475    6309.2592    2706323.2   -138766.78    420916.76    282149.99    3527855.7 
   38000          9.5     6155.246    2738483.2   -114178.58    410641.91    296463.33    3517504.1 
   38100        9.525    5992.5756    2770751.7   -89015.022    399789.49    310774.47    3507152.5 
   38200         9.55    5820.5587    2803220.2   -62908.185    388313.53    325405.34      3496801 
   38300        9.575    5671.7014    2837152.1   -38230.171    378382.65    340152.47    3486449.4 
   38400          9.6    5535.9319    2870396.8   -14471.991     369324.9    354852.91    3476097.8 
   38500        9.625    5422.0864    2903317.7    8142.7053     361729.8     369872.5    3465746.3 
   38600         9.65    5353.8129    2933775.9    27575.968    357174.99    384750.96    3455394.7 
   38700        9.675    5340.8293    2961205.6     43695.97     356308.8    400004.77    3445043.1 
   38800          9.7    5368.3786    2984109.5    57256.883    358146.73    415403.61    3434691.6 
   38900        9.725    5430.9774    3002994.3    68491.431    362322.96    430814.39      3424340 
   39000         9.75    5523.9563    3019672.5    77707.869    368525.96    446233.83    3413988.4 
   39100        9.775    5655.1941    3034733.3    84624.643    377281.38    461906.02    3403636.9 
   39200          9.8    5786.4361    3048506.8    91466.385    386037.07    477503.46    3393285.3 
   39300        9.825    5909.8415    3062840.9    98809.213    394269.96    493079.17    3382933.7 
   39400         9.85    6040.6982    3077678.1    105561.07    402999.95    508561.01    3372582.1 
   39500        9.875    6129.4068    3095987.3    114949.36    408918.06    523867.43    3362230.6 
   39600          9.9     6190.449    3117480.4    125909.11    412990.44    538899.56      3351879 
   39700        9.925    6208.8523    3144324.3    139394.61     414218.2    553612.81    3341527.4 
   39800         9.95    6178.3629    3175868.8    155761.93    412184.13    567946.06    3331175.9 
   39900        9.975    6096.6748    3208849.4    175332.73    406734.38    582067.11    3320824.3 
   40000           10    5983.0325    3241875.4    196807.59    399152.83    595960.42    3310472.7 
   40100       10.025    5838.2278    3276468.4    220107.41    389492.31    609599.71    3300121.2 
   40200        10.05    5681.9686    3311083.8     244120.3    379067.61    623187.91    3289769.6 
   40300       10.075    5502.8983    3346140.8    269276.78    367121.09    636397.87      3279418 
   40400         10.1    5314.5836    3381801.2    294849.21    354557.84    649407.05    3269066.5 
   40500       10.125    5137.3745    3417489.5    319471.44    342735.49    662206.93    3258714.9 
   40600        10.15    4971.4291      3452324    343057.91    331664.59    674722.49    3248363.3 
   40700       10.175     4836.066    3485798.9    364339.34    322633.96     686973.3    3238011.8 
   40800         10.2    4714.8509    3517272.4    384464.97     314547.2    699012.16    3227660.2 
   40900       10.225    4640.1783    3544539.9     401144.8    309565.48    710710.28    3217308.6 
   41000        10.25    4599.2591    3570019.5    415402.99    306835.59    722238.58    3206957.1 
   41100       10.275    4564.0543    3593145.9     429104.4    304486.93    733591.32    3196605.5 
   41200         10.3    4551.2067    3614041.4    441018.45    303629.82    744648.26    3186253.9 
   41300       10.325     4555.094    3635018.5    451890.84    303889.15    755779.99    3175902.4 
   41400        10.35    4554.7594    3655549.7    463125.78    303866.83    766992.61    3165550.8 
   41500       10.375    4554.6116    3678828.6    474655.01    303856.97    778511.98    3155199.2 
   41600         10.4    4565.6294    3705199.8       487030    304592.01    791622.01    3144847.7 
   41700       10.425    4588.8664    3737187.6    502176.85    306142.25     808319.1    3134496.1 
   41800        10.45    4659.2301    3776903.1    521562.07     310836.5    832398.58    3124144.5 
   41900       10.475    4781.5838    3822286.9     544582.3    318999.22    863581.53      3113793 
   42000         10.5    4841.5693      3868011    571777.57     323001.1    894778.67    3103441.4 
   42100       10.525    4909.8117    3918957.4     600272.9    327553.84    927826.73    3093089.8 
   42200        10.55    4956.8819    3973508.8    632379.13    330694.08    963073.21    3082738.3 
   42300       10.575    4991.4007    4031255.9    666100.46    332996.97    999097.43    3072386.7 
   42400         10.6    5046.0091    4091259.5     700087.6    336640.13    1036727.7    3062035.1 
   42500       10.625    5120.6812      4152523    735187.32    341621.81    1076809.1    3051683.6 
   42600        10.65    5256.4786    4212364.1    767635.17    350681.42    1118316.6      3041332 
   42700       10.675    5404.0479    4270107.6    800574.91    360526.37    1161101.3    3030980.4 
   42800         10.7     5599.637      4326762     831116.2    373574.93    1204691.1    3020628.8 
   42900       10.725    5813.2645    4384899.2    861663.17    387826.91    1249490.1    3010277.3 
   43000        10.75    6110.2113    4443938.1    887788.92    407637.45    1295426.4    2999925.7 
   43100       10.775    6407.2415    4500830.9    913526.67    427453.57    1340980.2    2989574.1 
   43200         10.8    6736.9002    4558853.2    936598.41    449446.46    1386044.9    2979222.6 
   43300       10.825    7058.2544    4616016.3    959664.59    470885.33    1430549.9      2968871 
   43400        10.85    7375.2166    4672039.9     982436.5    492031.19    1474467.7    2958519.4 
   43500       10.875    7682.7797      4728611    1005836.1    512549.99    1518386.1    2948167.9 
   43600         10.9    7954.1471    4786043.5    1031066.3    530654.03    1561720.3    2937816.3 
   43700       10.925    8146.6527    4845955.6    1061121.2    543496.88    1604618.1    2927464.7 
   43800        10.95    8323.7052    4907932.3    1091728.5    555308.78    1647037.3    2917113.2 
   43900       10.975    8409.1522    4972775.8    1127288.8     561009.3    1688298.1    2906761.6 
   44000           11    8452.6417    5040473.6    1164467.7    563910.67    1728378.4      2896410 
   44100       11.025    8440.6189    5111651.6      1204575    563108.58    1767683.6    2886058.5 
   44200        11.05    8410.9342    5186156.9    1244919.6    561128.19    1806047.8    2875706.9 
   44300       11.075    8392.4886    5263899.7    1283970.4    559897.61      1843868    2865355.3 
   44400         11.1    8380.5073    5343122.5    1322734.6    559098.29    1881832.9    2855003.8 
   44500       11.125    8411.0965    5422913.3    1357928.2    561139.02    1919067.2    2844652.2 
   44600        11.15    8493.1651    5498842.7    1389842.2    566614.15    1956456.3    2834300.6 
   44700       11.175    8654.2393    5569146.2    1416937.7    577360.08    1994297.8    2823949.1 
   44800         11.2    8857.3689    5632873.6    1441871.7    590911.69    2032783.4    2813597.5 
   44900       11.225    9136.4098    5691517.2    1462341.5    609527.67    2071869.2    2803245.9 
   45000        11.25    9422.4413    5746462.1    1483170.2    628610.01    2111780.2    2792894.4 
   45100       11.275    9763.9088    5801144.1    1502166.6    651390.72    2153557.3    2782542.8 
   45200         11.3    10083.074    5856724.9    1523726.5    672683.52      2196410    2772191.2 
   45300       11.325     10375.27      5918523    1550111.4    692177.17    2242288.6    2761839.7 
   45400        11.35    10646.865    5989101.3      1579608    710296.37    2289904.3    2751488.1 
   45500       11.375    10901.154    6068271.3    1613030.4    727261.07    2340291.5    2741136.5 
   45600         11.4    11130.779    6155545.1    1650138.7    742580.26    2392718.9      2730785 
   45700       11.425      11351.2    6249263.6    1688571.2    757285.51    2445856.7    2720433.4 
   45800        11.45    11549.209    6349475.3    1729817.6    770495.49      2500313    2710081.8 
   45900       11.475    11737.077    6448724.8    1771630.6     783028.9    2554659.6    2699730.3 
   46000         11.5    11954.679    6546488.3    1811464.3    797546.07    2609010.3    2689378.7 
   46100       11.525    12174.368    6638499.8    1851079.8    812202.43    2663282.2    2679027.1 
   46200        11.55    12458.729    6725360.4    1884942.1    831173.31    2716115.4    2668675.5 
   46300       11.575    12748.408    6805062.8    1918046.4    850499.03    2768545.4      2658324 
   46400         11.6    13060.325    6881531.4    1947462.8     871308.3    2818771.1    2647972.4 
   46500       11.625    13355.033    6957542.1    1976494.1    890969.43    2867463.5    2637620.8 
   46600        11.65    13541.428    7038258.2    2010717.6    903404.66    2914122.3    2627269.3 
   46700       11.675    13666.752    7125573.1    2047401.8    911765.52    2959167.3    2616917.7 
   46800         11.7    13681.653    7223496.5    2089009.9     912759.6    3001769.5    2606566.1 
   46900       11.725     13545.86    7327405.8    2139050.9    903700.34    3042751.2    2596214.6 
   47000        11.75    13329.066    7441636.3    2192692.9     889237.1      3081930      2585863 
   47100       11.775    12969.818    7559902.7    2253822.2     865270.2    3119092.4    2575511.4 
   47200         11.8    12578.391      7677868    2315985.7    839156.43    3155142.1    2565159.9 
   47300       11.825    12144.754    7793439.9    2379364.4    810226.73    3189591.1    2554808.3 
   47400        11.85    11753.199    7906803.4    2439439.6    784104.49    3223544.1    2544456.7 
   47500       11.875    11411.533    8010877.2    2495212.2    761310.54    3256522.7    2534105.2 
   47600         11.9     11180.11    8112925.4    2543551.2    745871.37    3289422.6    2523753.6 
   47700       11.925    10992.187    8209432.3    2588586.8    733334.25      3321921      2513402 
   47800        11.95    10864.871      8306000    2630722.5    724840.44      3355563    2503050.5 
   47900       11.975    10672.701    8408042.6    2677529.8    712020.01    3389549.8    2492698.9 
   48000           12    10468.397    8521221.6    2727516.4    698390.01    3425906.4    2482347.3 
   48100       12.025    10207.745    8644555.1    2784833.1    681000.88      3465834    2471995.8 
   48200        12.05    9897.5214    8775196.6    2848228.7    660304.57    3508533.3    2461644.2 
   48300       12.075    9538.1562      8912036    2917334.2    636329.83      3553664    2451292.6 
   48400         12.1    9242.5682    9050634.7    2983588.8    616609.93    3600198.8    2440941.1 
   48500       12.125    9028.2608    9183834.1    3046123.9     602312.6    3648436.5    2430589.5 
   48600        12.15    8958.9993    9310222.8    3100900.8    597691.88    3698592.7    2420237.9 
   48700       12.175    9039.4724    9427093.8    3146331.4    603060.57      3749392    2409886.4 
   48800         12.2    9233.8501    9534999.5    3185660.1    616028.31    3801688.4    2399534.8 
   48900       12.225    9443.8617    9644274.8    3223989.7    630039.05    3854028.7    2389183.2 
   49000        12.25    9655.1576    9761704.6    3262988.9    644135.47    3907124.4    2378831.7 
   49100       12.275    9725.1474      9890442    3311074.5    648804.79    3959879.3    2368480.1 
   49200         12.3    9660.6277     10031026    3368046.1    644500.41    4012546.5    2358128.5 
   49300       12.325     9475.873     10181889    3432106.4    632174.66      4064281      2347777 
   49400        12.35    9226.3938     10335186      3500488    615530.87    4116018.9    2337425.4 
   49500       12.375    8958.2235     10492488    3569917.8    597640.12    4167557.9    2327073.8 
   49600         12.4    8743.2767     10639534    3635166.1    583300.13    4218466.2    2316722.2 
   49700       12.425    8639.2725     10779323    3694327.2    576361.58    4270688.8    2306370.7 
   49800        12.45    8625.3051     10915808      3750995    575429.76    4326424.7    2296019.1 
   49900       12.475    8802.7948     11067558    3806899.4    587270.83    4394170.2    2285667.5 
   50000         12.5    9080.7156     11234531    3868233.2    605812.08    4474045.3      2275316 
Loop time of 520.822 on 24 procs for 50000 steps with 516124 atoms

Performance: 2.074 ns/day, 11.574 hours/ns, 96.002 timesteps/s
99.8% CPU use with 24 MPI tasks x 1 OpenMP threads

MPI task timing breakdown:
Section |  min time  |  avg time  |  max time  |%varavg| %total
---------------------------------------------------------------
Pair    | 220.32     | 236.6      | 257.58     |  63.8 | 45.43
Neigh   | 0.060076   | 0.13135    | 0.20155    |  15.1 |  0.03
Comm    | 57.094     | 62.445     | 68.513     |  37.8 | 11.99
Output  | 17.353     | 17.358     | 17.454     |   0.5 |  3.33
Modify  | 158.19     | 177.8      | 193.16     |  67.3 | 34.14
Other   |            | 26.49      |            |       |  5.09

Nlocal:        21505.2 ave       21989 max       20292 min
Histogram: 2 0 0 2 0 4 2 1 3 10
Nghost:        41624.7 ave       42804 max       40359 min
Histogram: 4 0 2 4 0 4 4 0 2 4
Neighs:         0.00000 ave           0 max           0 min
Histogram: 24 0 0 0 0 0 0 0 0 0

Total # of neighbors = 0
Ave neighs/atom = 0.0000000
Neighbor list builds = 891
Dangerous builds = 0


---------------------------------------------------------------------
      Device Time Info (average): 
---------------------------------------------------------------------
Data Transfer:   22.5833 s.
Neighbor copy:   0.0387 s.
Neighbor build:  4.5043 s.
Force calc:      155.6026 s.
Device Overhead: 67.1702 s.
Average split:   1.0000.
Lanes / atom:    4.
Vector width:    32.
Max Mem / Proc:  156.04 MB.
CPU Neighbor:    0.7089 s.
CPU Cast/Pack:   19.1846 s.
CPU Driver_Time: 0.9045 s.
CPU Idle_Time:   80.1503 s.
---------------------------------------------------------------------

Total wall time: 0:08:46
