LAMMPS (29 Sep 2021)
  using 1 OpenMP thread(s) per MPI task
Reading data file ...
  orthogonal box = (0.59103387 0.59501561 0.0000000) to (99.929056 99.925075 535.86400)
  3 by 2 by 16 MPI processor grid
  reading atoms ...
  444900 atoms
  reading velocities ...
  444900 velocities
  read_data CPU = 4.199 seconds
222450 atoms in group g_left
222450 atoms in group g_right

CITE-CITE-CITE-CITE-CITE-CITE-CITE-CITE-CITE-CITE-CITE-CITE-CITE

Your simulation uses code contributions which should be cited:
- @article{cjiang2012
The log file lists these citations in BibTeX format.

CITE-CITE-CITE-CITE-CITE-CITE-CITE-CITE-CITE-CITE-CITE-CITE-CITE

Neighbor list info ...
  update every 1 steps, delay 10 steps, check yes
  max neighbors/atom: 2000, page size: 100000
  master list distance cutoff = 8.28721
  ghost atom cutoff = 8.28721
  binsize = 4.143605, bins = 24 24 130
  3 neighbor lists, perpetual/occasional/extra = 3 0 0
  (1) pair eam/alloy, perpetual, skip from (3)
      attributes: half, newton on
      pair build: skip
      stencil: none
      bin: none
  (2) pair edip/multi, perpetual
      attributes: full, newton on
      pair build: full/bin/atomonly
      stencil: full/bin/3d
      bin: standard
  (3) neighbor class addition, perpetual, half/full from (2)
      attributes: half, newton on
      pair build: halffull/newton
      stencil: none
      bin: none
Setting up Verlet run ...
  Unit style    : metal
  Current step  : 0
  Time step     : 0.00025
Per MPI rank memory allocation (min/avg/max) = 9.981 | 12.82 | 15.98 Mbytes
Step Time Temp Press PotEng KinEng TotEng Volume 
       0            0    7481.0593    83422.579   -2213927.9    430218.58   -1783709.3    5287504.9 
     100        0.025    7479.6678    83056.272   -2213912.3    430138.56   -1783773.7    5277637.7 
     200         0.05    7480.3747     83868.48     -2213948    430179.21   -1783768.8    5267770.4 
     300        0.075    7480.3077    83276.543   -2213911.9    430175.36   -1783736.5    5257903.2 
     400          0.1    7479.5913    83073.777   -2213888.9    430134.16   -1783754.8    5248035.9 
     500        0.125    7479.3498     84132.84   -2213926.3    430120.27     -1783806    5238168.7 
     600         0.15    7479.3403    84076.157   -2213941.9    430119.73   -1783822.2    5228301.4 
     700        0.175    7479.1576    83094.417   -2213913.4    430109.22   -1783804.2    5218434.2 
     800          0.2    7479.0106    84388.968   -2213907.1    430100.77   -1783806.4    5208566.9 
     900        0.225    7479.0896     84270.44   -2213951.9    430105.31   -1783846.6    5198699.7 
    1000         0.25    7478.0794    84384.541   -2213925.7    430047.22   -1783878.5    5188832.4 
    1100        0.275    7478.2185    84648.056   -2213928.2    430055.22     -1783873    5178965.2 
    1200          0.3    7478.6441    84910.182   -2213935.5    430079.69   -1783855.8    5169097.9 
    1300        0.325    7477.9408    85640.172   -2213899.4    430039.24   -1783860.2    5159230.7 
    1400         0.35    7477.8201    86064.375   -2213896.6    430032.31   -1783864.3    5149363.4 
    1500        0.375    7478.7897    84802.509   -2213936.6    430088.06   -1783848.6    5139496.2 
    1600          0.4    7478.9819    86495.495   -2213941.2    430099.12   -1783842.1    5129628.9 
    1700        0.425    7478.3144    86560.943   -2213926.3    430060.73   -1783865.6    5119761.7 
    1800         0.45    7477.7633    86149.972     -2213916    430029.03   -1783886.9    5109894.4 
    1900        0.475    7478.2294    86329.834   -2213923.6    430055.84   -1783867.7    5100027.2 
    2000          0.5    7478.8609    86104.011   -2213917.4    430092.16   -1783825.3    5090159.9 
    2100        0.525    7479.3783    86989.597   -2213927.1    430121.91   -1783805.2    5080292.7 
    2200         0.55    7479.2303    86546.742   -2213926.5     430113.4   -1783813.1    5070425.4 
    2300        0.575    7482.4095    86750.881   -2214117.3    430296.23   -1783821.1    5060558.2 
    2400          0.6    7493.0594    86709.111   -2214733.1    430908.68   -1783824.5    5050690.9 
    2500        0.625    7486.4077    87695.678     -2214373    430526.16   -1783846.9    5040823.6 
    2600         0.65    7427.6055     90094.27   -2211023.9    427144.58   -1783879.4    5030956.4 
    2700        0.675    7392.2136     95383.67   -2208998.1    425109.27   -1783888.8    5021089.1 
    2800          0.7    7334.0717    101504.78   -2205642.9    421765.67   -1783877.3    5011221.9 
    2900        0.725    7287.6331    106691.97   -2202970.4    419095.09   -1783875.3    5001354.6 
    3000         0.75    7227.3902    112421.65   -2199528.2    415630.66   -1783897.6    4991487.4 
    3100        0.775    7176.9258    117633.46   -2196642.3    412728.56   -1783913.7    4981620.1 
    3200          0.8    7118.6733    122753.49   -2193280.5     409378.6   -1783901.9    4971752.9 
    3300        0.825    7069.2175    128621.88   -2190415.3    406534.51   -1783880.8    4961885.6 
    3400         0.85    7009.6293    134646.01   -2186980.9    403107.72   -1783873.1    4952018.4 
    3500        0.875    6961.3238     139543.2   -2184212.9    400329.78   -1783883.1    4942151.1 
    3600          0.9    6902.4757    144786.37     -2180841    396945.56   -1783895.4    4932283.9 
    3700        0.925    6851.3681    150175.41   -2177905.9    394006.48   -1783899.5    4922416.6 
    3800         0.95     6794.192    155323.56   -2174606.1    390718.42   -1783887.7    4912549.4 
    3900        0.975    6742.3877    160534.92     -2171610    387739.27   -1783870.7    4902682.1 
    4000            1    6686.9119    165847.41   -2168410.6    384548.98   -1783861.6    4892814.9 
    4100        1.025    6633.1943    171235.19   -2165326.6    381459.81   -1783866.8    4882947.6 
    4200         1.05    6579.8387    176857.73     -2162267    378391.45   -1783875.6    4873080.4 
    4300        1.075    6602.5088    177225.89   -2163562.4    379695.16   -1783867.2    4863213.1 
    4400          1.1    6604.5094    176206.53   -2163655.2    379810.21     -1783845    4853345.9 
    4500        1.125    6553.4587    175986.74   -2160704.5     376874.4   -1783830.1    4843478.6 
    4600         1.15    6570.1822    176534.53   -2161658.5    377836.13   -1783822.4    4833611.4 
    4700        1.175    6590.4482    178460.85   -2162806.5    379001.58   -1783804.9    4823744.1 
    4800          1.2     6541.848     179026.3   -2159988.2    376206.69   -1783781.5    4813876.9 
    4900        1.225    6573.1441    179265.89   -2161773.6    378006.46   -1783767.2    4804009.6 
    5000         1.25    6562.7693    178660.13     -2161171    377409.83   -1783761.1    4794142.4 
    5100        1.275    6533.0839     179141.6   -2159451.9    375702.69   -1783749.2    4784275.1 
    5200          1.3    6560.2057    180269.42   -2160998.4     377262.4     -1783736    4774407.9 
    5300        1.325    6514.9023    181725.39   -2158390.5    374657.11   -1783733.4    4764540.6 
    5400         1.35    6520.5821    184091.07   -2158716.2    374983.74   -1783732.5    4754673.3 
    5500        1.375    6456.7589       192726   -2155041.7    371313.42   -1783728.3    4744806.1 
    5600          1.4    6396.2863     205112.1   -2151560.6    367835.77   -1783724.9    4734938.8 
    5700        1.425    6311.6672    213743.71     -2146693    362969.52   -1783723.5    4725071.6 
    5800         1.45    6213.9925    223918.33   -2141075.3    357352.47   -1783722.8    4715204.3 
    5900        1.475    6131.0159    239525.52   -2136305.7    352580.68     -1783725    4705337.1 
    6000          1.5    6028.2061    251512.68   -2130401.9    346668.32   -1783733.6    4695469.8 
    6100        1.525    5931.0377    263703.33     -2124824    341080.39   -1783743.6    4685602.6 
    6200         1.55    5830.3644    277285.13     -2119041     335290.9   -1783750.1    4675735.3 
    6300        1.575    5734.8004    292101.09   -2113536.4    329795.23   -1783741.1    4665868.1 
    6400          1.6    5636.7841    305939.14   -2107875.7    324158.54   -1783717.1    4656000.8 
    6500        1.625    5538.0666    318921.56   -2102183.3    318481.53   -1783701.8    4646133.6 
    6600         1.65    5444.0382    331993.41   -2096780.3    313074.17   -1783706.1    4636266.3 
    6700        1.675    5351.9197       341802   -2091495.7    307776.64     -1783719    4626399.1 
    6800          1.7    5284.2721     350697.2   -2087617.8    303886.38   -1783731.4    4616531.8 
    6900        1.725    5222.4035     355570.2   -2084064.5    300328.46     -1783736    4606664.6 
    7000         1.75    5172.3969    360542.98   -2081181.5    297452.69   -1783728.8    4596797.3 
    7100        1.775    5142.6645    362169.75   -2079445.6    295742.85   -1783702.8    4586930.1 
    7200          1.8    5127.6328    364660.24   -2078551.3    294878.42   -1783672.9    4577062.8 
    7300        1.825    5107.4836    364709.94   -2077386.8    293719.68   -1783667.1    4567195.6 
    7400         1.85    5087.7097    365557.78   -2076268.3    292582.53   -1783685.7    4557328.3 
    7500        1.875    5074.2832    366181.42   -2075516.2     291810.4   -1783705.7    4547461.1 
    7600          1.9    5070.5661     367358.6   -2075304.3    291596.64   -1783707.7    4537593.8 
    7700        1.925    5067.5776    368203.94   -2075124.3    291424.78   -1783699.5    4527726.6 
    7800         1.95     5057.947    370641.44   -2074562.7    290870.95   -1783691.7    4517859.3 
    7900        1.975    5064.7634    371392.15   -2074959.1    291262.94   -1783696.1    4507992.1 
    8000            2    5050.4309    371983.19   -2074146.3    290438.71   -1783707.6    4498124.8 
    8100        2.025    5008.4467    376222.08   -2071734.2     288024.3   -1783709.9    4488257.6 
    8200         2.05    4972.9117    380150.99   -2069693.9    285980.76   -1783713.2    4478390.3 
    8300        2.075    4910.1021    382791.02   -2066084.1    282368.72   -1783715.4    4468523.1 
    8400          2.1    4847.4857    388521.55     -2062483     278767.8   -1783715.2    4458655.8 
    8500        2.125    4765.0154    391785.39   -2057738.6    274025.12   -1783713.5    4448788.5 
    8600         2.15    4681.8723    397234.25   -2052966.7    269243.75     -1783723    4438921.3 
    8700        2.175    4599.7105    401401.86   -2048269.8    264518.81     -1783751      4429054 
    8800          2.2    4526.1909    406106.76   -2044067.9    260290.87     -1783777    4419186.8 
    8900        2.225    4459.8231    410473.39   -2040261.6    256474.21   -1783787.4    4409319.5 
    9000         2.25    4401.2075    415305.67     -2036898    253103.36   -1783794.7    4399452.3 
    9100        2.275    4365.0097    418456.77   -2034826.3    251021.71   -1783804.6      4389585 
    9200          2.3     4349.528    420420.95   -2033940.1    250131.39   -1783808.7    4379717.8 
    9300        2.325    4336.6909    419554.72   -2033206.3    249393.16   -1783813.1    4369850.5 
    9400         2.35    4327.7173    421923.39   -2032707.1    248877.11     -1783830    4359983.3 
    9500        2.375    4331.9174    421227.15   -2032968.9    249118.65   -1783850.2      4350116 
    9600          2.4    4335.0185    423244.09   -2033155.7    249296.98   -1783858.7    4340248.8 
    9700        2.425    4335.8917    428487.92   -2033200.8     249347.2   -1783853.6    4330381.5 
    9800         2.45    4329.3501    433184.94   -2032821.5    248971.01   -1783850.5    4320514.3 
    9900        2.475    4319.0786    439895.77   -2032243.9    248380.32   -1783863.6      4310647 
   10000          2.5    4294.2086    452696.36   -2030827.2     246950.1   -1783877.1    4300779.8 
   10100        2.525    4260.7252    462944.47   -2028897.4    245024.54   -1783872.9    4290912.5 
   10200         2.55    4219.4375    479551.29   -2026509.5    242650.18   -1783859.3    4281045.3 
   10300        2.575    4166.3716    493543.47   -2023451.8    239598.48   -1783853.3      4271178 
   10400          2.6    4116.6063    510617.97   -2020586.4     236736.6   -1783849.8    4261310.8 
   10500        2.625    4057.7563    528139.83   -2017187.1    233352.27   -1783834.9    4251443.5 
   10600         2.65    3998.1287    546487.69   -2013733.5    229923.22   -1783810.3    4241576.3 
   10700        2.675    3932.5512    561724.84   -2009956.5    226152.01   -1783804.5      4231709 
   10800          2.7    3865.8322    576484.27   -2006149.3    222315.15   -1783834.2    4221841.8 
   10900        2.725    3803.5396    587826.05   -2002599.3    218732.85   -1783866.4    4211974.5 
   11000         2.75    3745.1969    597479.11   -1999254.6    215377.69   -1783876.9    4202107.3 
   11100        2.775    3694.2273    605211.18   -1996321.8    212446.55   -1783875.3      4192240 
   11200          2.8    3647.5199    607772.77   -1993642.7    209760.51   -1783882.1    4182372.8 
   11300        2.825    3600.6661    611637.41   -1990961.3    207066.06   -1783895.2    4172505.5 
   11400         2.85    3557.7222    614800.68   -1988500.6    204596.45   -1783904.1    4162638.3 
   11500        2.875    3518.6874    615898.64   -1986257.7    202351.65     -1783906      4152771 
   11600          2.9    3478.7862    619217.28   -1983952.5    200057.02   -1783895.5    4142903.7 
   11700        2.925     3442.239    619358.59     -1981829    197955.28   -1783873.7    4133036.5 
   11800         2.95    3402.6327    623934.69   -1979532.8    195677.61   -1783855.2    4123169.2 
   11900        2.975    3361.8112    629082.42   -1977193.1    193330.06     -1783863      4113302 
   12000            3    3324.1875    631048.37   -1975063.4    191166.41     -1783897    4103434.7 
   12100        3.025    3279.7231    636167.41     -1972536    188609.36   -1783926.6    4093567.5 
   12200         3.05    3232.2888    640945.86   -1969815.3    185881.52   -1783933.8    4083700.2 
   12300        3.075    3181.3564    646967.55   -1966879.7    182952.52   -1783927.2      4073833 
   12400          3.1    3133.8247    653135.45   -1964133.9    180219.08   -1783914.8    4063965.7 
   12500        3.125    3077.3964    658649.03   -1960872.4    176974.02   -1783898.4    4054098.5 
   12600         3.15    3022.5754     664475.4   -1957709.2    173821.39   -1783887.8    4044231.2 
   12700        3.175    2965.7086    671626.18   -1954435.6    170551.11   -1783884.5      4034364 
   12800          3.2    2905.2761    680618.04   -1950960.4    167075.78   -1783884.6    4024496.7 
   12900        3.225    2850.5467    688092.64   -1947810.9    163928.41   -1783882.5    4014629.5 
   13000         3.25    2789.3896    698318.21     -1944272    160411.41   -1783860.6    4004762.2 
   13100        3.275     2737.047    704267.78   -1941235.4    157401.31   -1783834.1      3994895 
   13200          3.3    2688.6107    712440.32   -1938449.7    154615.84   -1783833.8    3985027.7 
   13300        3.325    2639.9691    721595.04   -1935670.4    151818.58   -1783851.8    3975160.5 
   13400         3.35     2602.748    727720.51   -1933536.6    149678.07   -1783858.5    3965293.2 
   13500        3.375    2568.0443     732828.5   -1931520.3    147682.34     -1783838      3955426 
   13600          3.4     2539.605    738231.04   -1929863.6    146046.87   -1783816.7    3945558.7 
   13700        3.425    2528.7084    740862.18   -1929240.1    145420.23   -1783819.9    3935691.5 
   13800         3.45    2517.4209    743320.31   -1928608.5    144771.11   -1783837.4    3925824.2 
   13900        3.475    2513.3888    743690.12   -1928382.8    144539.24   -1783843.5      3915957 
   14000          3.5    2513.6913    745463.77   -1928391.3    144556.63   -1783834.6    3906089.7 
   14100        3.525    2517.5679    746568.91   -1928609.9    144779.56   -1783830.4    3896222.5 
   14200         3.55    2523.2889    746031.53   -1928939.9    145108.56   -1783831.3    3886355.2 
   14300        3.575    2528.1049    746160.85   -1929210.4    145385.52   -1783824.9      3876488 
   14400          3.6    2533.6586     746870.7   -1929515.6     145704.9   -1783810.7    3866620.7 
   14500        3.625    2537.4022    747051.66   -1929726.5    145920.19   -1783806.4    3856753.4 
   14600         3.65    2539.2608    749676.13   -1929849.8    146027.07   -1783822.7    3846886.2 
   14700        3.675    2531.5453    750323.92   -1929431.3    145583.37   -1783847.9    3837018.9 
   14800          3.7    2518.0327    754679.26   -1928674.6    144806.29   -1783868.3    3827151.7 
   14900        3.725    2498.0884    762074.77   -1927539.4    143659.34     -1783880    3817284.4 
   15000         3.75    2459.8792    768292.35   -1925346.3    141462.02   -1783884.3    3807417.2 
   15100        3.775    2415.8069    776205.75   -1922812.1    138927.52   -1783884.6    3797549.9 
   15200          3.8     2359.415    784721.74   -1919572.1    135684.55   -1783887.5    3787682.7 
   15300        3.825    2304.8719    794340.42     -1916444     132547.9   -1783896.1    3777815.4 
   15400         3.85     2246.149    806155.79   -1913076.1    129170.88   -1783905.2    3767948.2 
   15500        3.875    2185.8514    817367.21   -1909602.4    125703.31   -1783899.1    3758080.9 
   15600          3.9    2126.9912    829447.07   -1906202.1    122318.39   -1783883.7    3748213.7 
   15700        3.925    2065.7044    839146.63   -1902664.6    118793.93   -1783870.7    3738346.4 
   15800         3.95    2007.7808    850954.52     -1899308    115462.87   -1783845.1    3728479.2 
   15900        3.975    1948.2768    858544.13   -1895834.8    112040.94   -1783793.9    3718611.9 
   16000            4    1890.7285    867912.74   -1892441.3    108731.46   -1783709.9    3708744.7 
   16100        4.025    1838.6465    876348.13   -1889306.1    105736.35   -1783569.8    3698877.4 
   16200         4.05     1787.164    883655.67   -1886069.9    102775.71   -1783294.2    3689010.2 
   16300        4.075    1746.2669    889373.57   -1883170.5    100423.81   -1782746.6    3679142.9 
   16400          4.1    1707.8116    897867.74   -1879968.9    98212.332   -1781756.6    3669275.7 
   16500        4.125    1679.4669    905892.04   -1876797.9    96582.296   -1780215.6    3659408.4 
   16600         4.15    1639.4842    913553.22   -1872360.9    94282.979   -1778077.9    3649541.2 
   16700        4.175     1646.833    930029.19   -1861831.5    94705.596   -1767125.9    3639673.9 
   16800          4.2    1865.8427    951511.56   -1849140.2    107300.34   -1741839.9    3629806.7 
   16900        4.225    2101.9539    974821.87     -1839020    120878.55   -1718141.4    3619939.4 
   17000         4.25    2098.8976    991410.87   -1823572.1    120702.79   -1702869.3    3610072.2 
   17100        4.275    2136.1237    1014940.3   -1812341.2    122843.58   -1689497.6    3600204.9 
   17200          4.3     2271.069    1035500.7   -1796307.2    130603.98   -1665703.2    3590337.7 
   17300        4.325    2491.6214    1060577.9   -1785100.1    143287.44   -1641812.6    3580470.4 
   17400         4.35    2570.7523    1083571.4   -1769391.2    147838.07   -1621553.1    3570603.2 
   17500        4.375    2685.7085    1102395.3   -1759463.2    154448.94   -1605014.2    3560735.9 
   17600          4.4    2899.8209      1118044   -1749071.2    166762.05   -1582309.1    3550868.6 
   17700        4.425    3195.1069    1125660.5     -1742910    183743.28   -1559166.7    3541001.4 
   17800         4.45    3376.4765    1128588.2   -1733888.8    194173.43   -1539715.4    3531134.1 
   17900        4.475    3548.6764    1135478.5   -1726702.8    204076.25   -1522626.5    3521266.9 
   18000          4.5    3763.3381      1144130   -1718591.4    216420.96   -1502170.5    3511399.6 
   18100        4.525    3973.6569      1157953     -1710190    228515.91   -1481674.1    3501532.4 
   18200         4.55    4084.1607    1173928.5   -1700235.3    234870.73   -1465364.5    3491665.1 
   18300        4.575    4129.3928    1187245.6   -1688826.3    237471.92   -1451354.3    3481797.9 
   18400          4.6    4148.7057      1205168   -1676248.8    238582.56   -1437666.3    3471930.6 
   18500        4.625    4123.0309    1220461.5   -1662896.3    237106.06   -1425790.2    3462063.4 
   18600         4.65    4053.4852    1240803.5   -1649555.1    233106.65   -1416448.4    3452196.1 
   18700        4.675    3951.5534    1264723.1     -1635888    227244.78   -1408643.2    3442328.9 
   18800          4.7    3870.9701    1284692.3     -1623607    222610.62   -1400996.4    3432461.6 
   18900        4.725    3813.0009    1301642.1   -1612176.2    219276.95   -1392899.2    3422594.4 
   19000         4.75    3794.7489    1322877.2   -1602601.5    218227.32   -1384374.2    3412727.1 
   19100        4.775    3803.8717    1349113.7   -1594060.5    218751.95   -1375308.6    3402859.9 
   19200          4.8     3865.874      1374172   -1587693.5    222317.56     -1365376    3392992.6 
   19300        4.825    3937.7993    1397071.6   -1581599.4    226453.82   -1355145.6    3383125.4 
   19400         4.85    4025.4218    1424135.7   -1575099.6    231492.79   -1343606.9    3373258.1 
   19500        4.875    4156.2983    1449603.8   -1567097.7    239019.19   -1328078.5    3363390.9 
   19600          4.9    4371.8862    1479988.1   -1559776.8    251417.16   -1308359.6    3353523.6 
   19700        4.925    4597.7634    1512707.7   -1551815.3    264406.84   -1287408.4    3343656.4 
   19800         4.95    4776.8694    1546121.8   -1542738.4    274706.81   -1268031.6    3333789.1 
   19900        4.975    4921.1977    1579281.1   -1532108.2    283006.81   -1249101.4    3323921.9 
   20000            5    5093.6036    1603650.4   -1521996.4    292921.48   -1229074.9    3314054.6 
   20100        5.025    5336.0893    1621986.9   -1514737.5    306866.27   -1207871.2    3304187.4 
   20200         5.05    5559.1114    1633641.6   -1506254.1    319691.76   -1186562.3    3294320.1 
   20300        5.075    5795.9584    1644711.7   -1498421.9    333312.29   -1165109.6    3284452.9 
   20400          5.1    6064.9016    1655484.4   -1491991.8     348778.6   -1143213.2    3274585.6 
   20500        5.125    6301.0809    1668929.5   -1483789.7    362360.73     -1121429    3264718.4 
   20600         5.15     6490.605      1693303   -1473572.2    373259.82   -1100312.4    3254851.1 
   20700        5.175    6621.6816    1726300.5   -1460804.2    380797.74   -1080006.5    3244983.8 
   20800          5.2    6709.8307    1764318.3   -1446581.6    385866.99   -1060714.6    3235116.6 
   20900        5.225    6774.4882    1798091.1   -1431848.1     389585.3   -1042262.8    3225249.3 
   21000         5.25    6813.4587    1836653.9     -1416754     391826.4   -1024927.6    3215382.1 
   21100        5.275    6854.2131      1876870   -1403041.5    394170.09   -1008871.4    3205514.8 
   21200          5.3    6912.9346    1916907.1   -1391300.7    397547.04   -993753.64    3195647.6 
   21300        5.325    7001.8329      1949291   -1381799.9    402659.37   -979140.48    3185780.3 
   21400         5.35    7101.2859      1979544   -1373524.1    408378.69   -965145.39    3175913.1 
   21500        5.375    7190.4369    2014332.7   -1365285.3    413505.56    -951779.7    3166045.8 
   21600          5.4    7275.2044    2044458.7   -1356767.3    418380.34      -938387    3156178.6 
   21700        5.425     7341.109    2067245.8   -1346892.9    422170.36   -924722.52    3146311.3 
   21800         5.45    7387.9249      2084993   -1335747.8    424862.64   -910885.21    3136444.1 
   21900        5.475    7438.7624    2100050.7   -1324545.4    427786.19   -896759.24    3126576.8 
   22000          5.5    7482.1196    2116318.2   -1312745.6    430279.56   -882466.08    3116709.6 
   22100        5.525    7522.9087      2130096   -1300904.4    432625.25   -868279.18    3106842.3 
   22200         5.55    7561.6939    2134711.5   -1289128.8    434855.69   -854273.06    3096975.1 
   22300        5.575    7607.5121    2143877.3   -1277985.1    437490.59   -840494.51    3087107.8 
   22400          5.6    7681.4111    2154603.3   -1268139.5    441740.36   -826399.14    3077240.6 
   22500        5.625    7789.8768    2165643.7   -1260090.5    447977.97   -812112.53    3067373.3 
   22600         5.65    7917.4312    2174753.7   -1252924.3    455313.33   -797610.93    3057506.1 
   22700        5.675    8072.0911    2185990.4   -1247462.7    464207.47   -783255.25    3047638.8 
   22800          5.7    8204.3868    2199623.2   -1241552.5    471815.49   -769737.03    3037771.6 
   22900        5.725    8324.4252    2216992.1   -1236032.7    478718.63   -757314.04    3027904.3 
   23000         5.75    8413.3882    2236428.6   -1229644.1    483834.68   -745809.43    3018037.1 
   23100        5.775     8477.993    2265987.6     -1222587    487549.95    -735037.1    3008169.8 
   23200          5.8    8516.7634    2292011.3   -1214680.1    489779.55   -724900.58    2998302.6 
   23300        5.825    8529.9845    2326350.8   -1206168.1    490539.87   -715628.25    2988435.3 
   23400         5.85    8543.4399    2357331.6   -1198011.2    491313.66   -706697.56    2978568.1 
   23500        5.875    8546.9726    2387132.2   -1189180.5    491516.82   -697663.72    2968700.8 
   23600          5.9    8545.8203    2424513.1     -1179819    491450.55   -688368.47    2958833.5 
   23700        5.925    8543.7073    2462183.1   -1169063.3    491329.03   -677734.24    2948966.3 
   23800         5.95    8555.3872    2492531.5   -1156868.3    492000.72   -664867.58      2939099 
   23900        5.975    8580.4832    2532336.5   -1142132.7    493443.93   -648688.74    2929231.8 
   24000            6    8654.3349    2575164.1   -1126908.3    497690.98   -629217.35    2919364.5 
   24100        6.025    8725.4879    2611982.8     -1109758    501782.82   -607975.15    2909497.3 
   24200         6.05    8797.1329    2650499.1   -1092529.4    505902.96   -586626.44      2899630 
   24300        6.075    8825.9726    2683889.8   -1073335.4    507561.47   -565773.89    2889762.8 
   24400          6.1    8834.9666    2726936.7   -1053805.6    508078.69   -545726.88    2879895.5 
   24500        6.125     8856.129    2759021.7   -1034364.5    509295.69   -525068.84    2870028.3 
   24600         6.15    8881.7809    2789621.4   -1014667.3    510770.87   -503896.46      2860161 
   24700        6.175      8915.09    2830711.8   -995147.47    512686.41   -482461.06    2850293.8 
   24800          6.2    8940.2803      2875862   -975779.23    514135.04   -461644.19    2840426.5 
   24900        6.225     8959.965    2917876.3   -956720.43    515267.06   -441453.37    2830559.3 
   25000         6.25    8969.8443    2966336.3   -937470.02     515835.2   -421634.82      2820692 
   25100        6.275    8968.7681    3005985.7   -918259.18    515773.31   -402485.87    2810824.8 
   25200          6.3    8967.8179    3051602.8   -899894.72    515718.66   -384176.06    2800957.5 
   25300        6.325    8948.6333    3097517.1   -881623.01     514615.4   -367007.61    2791090.3 
   25400         6.35    8926.1911    3134773.3      -863827     513324.8    -350502.2      2781223 
   25500        6.375    8888.0475    3181483.5   -846140.73    511131.25   -335009.47    2771355.8 
   25600          6.4    8849.0003    3224742.3   -828857.35    508885.73   -319971.61    2761488.5 
   25700        6.425    8810.1016    3273495.7   -812119.28    506648.76   -305470.52    2751621.3 
   25800         6.45    8781.4554    3318164.7   -796127.85    505001.39   -291126.46      2741754 
   25900        6.475    8756.6458    3362308.7   -780475.29    503574.64   -276900.65    2731886.8 
   26000          6.5    8745.3715    3408625.8    -765383.2    502926.28   -262456.91    2722019.5 
   26100        6.525    8726.8652    3452444.7   -750077.03    501862.03      -248215    2712152.3 
   26200         6.55    8698.1727    3496750.3      -734187    500211.99   -233975.01      2702285 
   26300        6.575    8641.1665    3546242.2   -716598.02    496933.69   -219664.33    2692417.8 
   26400          6.6    8587.7975    3588688.7   -699182.19    493864.56   -205317.63    2682550.5 
   26500        6.625    8502.9721    3638147.8   -680294.53    488986.45   -191308.08    2672683.3 
   26600         6.65    8409.5129    3678954.5   -660936.26    483611.82   -177324.44      2662816 
   26700        6.675    8302.3215    3720860.1   -640696.17    477447.49   -163248.68    2652948.7 
   26800          6.7    8179.5986      3767104   -619515.37    470389.98   -149125.39    2643081.5 
   26900        6.725    8036.8355    3818707.2   -596988.13       462180   -134808.13    2633214.2 
   27000         6.75     7891.602    3874964.1   -574598.26    453827.95    -120770.3      2623347 
   27100        6.775     7739.999    3934988.4   -551986.97    445109.61   -106877.35    2613479.7 
   27200          6.8    7594.4844    3982902.2   -529522.33     436741.4   -92780.934    2603612.5 
   27300        6.825    7439.1059    4038787.6   -506545.43    427805.94    -78739.49    2593745.2 
   27400         6.85    7310.2833    4097340.4    -485230.4    420397.65   -64832.749      2583878 
   27500        6.875    7189.3061    4144343.8   -464643.96    413440.52    -51203.44    2574010.7 
   27600          6.9    7104.7158    4187412.7   -446176.01    408575.93    -37600.08    2564143.5 
   27700        6.925    7008.3564    4212976.3   -427248.92    403034.52   -24214.402    2554276.2 
   27800         6.95    6908.8125    4255144.2   -408728.85    397309.98   -11418.865      2544409 
   27900        6.975     6861.202    4276087.4   -393093.55    394572.01    1478.4664    2534541.7 
   28000            7    6780.7273    4319118.5   -375231.02    389944.09    14713.073    2524674.5 
   28100        7.025     6729.964    4353247.9   -359443.77    387024.82    27581.046    2514807.2 
   28200         7.05    6683.9359    4386986.4   -343979.59    384377.84    40398.254      2504940 
   28300        7.075    6624.4645    4410702.5   -326946.71    380957.78    54011.067    2495072.7 
   28400          7.1    6601.1552    4455565.9    -310988.9    379617.31     68628.41    2485205.5 
   28500        7.125    6570.9423    4491934.1   -292884.87    377879.84    84994.975    2475338.2 
   28600         7.15    6600.5084    4536121.7   -276373.18    379580.12    103206.94      2465471 
   28700        7.175    6599.4659    4594982.2   -255422.12    379520.17    124098.05    2455603.7 
   28800          7.2    6642.5142    4638140.3    -233896.4    381995.78    148099.38    2445736.5 
   28900        7.225    6688.4059    4696958.7   -210218.71     384634.9    174416.19    2435869.2 
   29000         7.25    6714.8449      4747550   -183029.73    386155.35    203125.61      2426002 
   29100        7.275    6791.6882    4817994.8   -155181.34    390574.43    235393.09    2416134.7 
   29200          7.3    6897.5342      4875687   -124555.12    396661.39    272106.27    2406267.5 
   29300        7.325    7069.4352      4957428   -91754.493    406547.03    314792.53    2396400.2 
   29400         7.35     7303.641    5036986.2   -58893.462    420015.66     361122.2      2386533 
   29500        7.375    7574.9648    5128668.3   -25086.655    435618.87    410532.22    2376665.7 
   29600          7.4    7859.0329    5217135.2    8040.7024    451954.98    459995.68    2366798.4 
   29700        7.425    8158.6454    5315488.1    40582.595    469185.01     509767.6    2356931.2 
   29800         7.45    8442.2375    5409773.7    74520.255    485493.74       560014    2347063.9 
   29900        7.475    8732.2681      5518784    106768.95    502172.73    608941.69    2337196.7 
   30000          7.5    9015.9759    5613035.3    139396.76    518488.12    657884.88    2327329.4 
   30100        7.525    9263.3879    5713790.2    172872.91    532716.22    705589.13    2317462.2 
   30200         7.55    9523.8717      5808673    205701.53    547696.05    753397.58    2307594.9 
   30300        7.575    9782.7545    5903869.4    238690.87     562583.8    801274.67    2297727.7 
   30400          7.6    10075.913    6009411.6    271035.54    579442.68    850478.22    2287860.4 
   30500        7.625     10336.03    6104567.3    305615.93    594401.42    900017.35    2277993.2 
   30600         7.65    10627.295    6212964.4    339887.94    611151.39    951039.33    2268125.9 
   30700        7.675    10893.233    6324496.7    376909.08    626444.86    1003353.9    2258258.7 
   30800          7.7    11143.602    6453071.6    414213.56    640843.02    1055056.6    2248391.4 
   30900        7.725    11385.359    6604783.3    452503.79     654745.9    1107249.7    2238524.2 
   31000         7.75    11574.145    6776987.5    492625.05    665602.57    1158227.6    2228656.9 
   31100        7.775    11767.868    6944006.6    532576.29    676743.12    1209319.4    2218789.7 
   31200          7.8    11942.587    7122297.5    572874.16    686790.82      1259665    2208922.4 
   31300        7.825    12127.435    7286897.1    611701.32    697421.02    1309122.3    2199055.2 
   31400         7.85    12304.992    7422486.1     651042.2     707631.9    1358674.1    2189187.9 
   31500        7.875     12514.97    7557947.5    688521.05    719707.24    1408228.3    2179320.7 
   31600          7.9    12728.922    7674013.9    725556.48    732011.12    1457567.6    2169453.4 
   31700        7.925     12983.55    7757313.1    760908.05     746654.2    1507562.3    2159586.2 
   31800         7.95    13240.118    7863293.1       796605    761408.87    1558013.9    2149718.9 
   31900        7.975    13511.119    7968229.1       831801    776993.49    1608794.5    2139851.7 
   32000            8    13784.157    8074777.2    867414.83     792695.3    1660110.1    2129984.4 
   32100        8.025    14083.182    8189918.9    902081.45    809891.54      1711973    2120117.2 
   32200         8.05     14297.06    8329915.2    942477.18    822191.19    1764668.4    2110249.9 
   32300        8.075    14469.941      8487027    986978.85    832133.17      1819112    2100382.7 
   32400          8.1    14604.639    8646987.2    1036197.7    839879.36    1876077.1    2090515.4 
   32500        8.125    14693.097    8814767.8    1090888.3    844966.36    1935854.7    2080648.2 
   32600         8.15    14832.465    8965171.9    1144750.8    852981.06    1997731.9    2070780.9 
   32700        8.175    14940.966    9135989.6    1200726.2    859220.75    2059946.9    2060913.6 
   32800          8.2    15024.731    9316613.6    1257972.6    864037.87    2122010.4    2051046.4 
   32900        8.225    15086.615    9548534.9      1315896    867596.65    2183492.6    2041179.1 
   33000         8.25    15133.433    9772797.3    1373985.3    870289.04    2244274.4    2031311.9 
   33100        8.275    15189.413    9996024.3    1430027.5    873508.36    2303535.8    2021444.6 
   33200          8.3    15216.376     10216656      1486187    875058.95      2361246    2011577.4 
   33300        8.325    15217.024     10430632    1542738.2    875096.22    2417834.4    2001710.1 
   33400         8.35    15149.138     10590198    1601280.4    871192.24    2472472.7    1991842.9 
   33500        8.375    15056.176     10765532    1660286.3    865846.21    2526132.5    1981975.6 
   33600          8.4    14880.771     10913421    1723096.5    855759.03    2578855.5    1972108.4 
   33700        8.425    14632.984     11098176    1789119.3    841509.39    2630628.6    1962241.1 
   33800         8.45    14331.667     11310290    1856968.4    824181.34    2681149.7    1952373.9 
   33900        8.475    14041.144     11548712    1924913.1       807474    2732387.1    1942506.6 
   34000          8.5    13728.311     11777194    1992410.9    789483.71    2781894.6    1932639.4 
   34100        8.525    13454.185     11971143    2058650.1    773719.37    2832369.4    1922772.1 
   34200         8.55    13209.961     12182572    2122979.8    759674.62    2882654.4    1912904.9 
   34300        8.575    13002.067     12308368    2185257.3    747719.09    2932976.4    1903037.6 
