LAMMPS (29 Sep 2021)
  using 1 OpenMP thread(s) per MPI task
Reading restart file ...
  restart file = 29 Sep 2021, LAMMPS = 29 Sep 2021
  restoring atom style atomic from restart
  orthogonal box = (-0.75622433 -0.74325115 0.0000000) to (101.82889 101.81592 609.83800)
  3 by 2 by 16 MPI processor grid
  pair style hybrid/overlay stores no restart info
  434002 atoms
  read_restart CPU = 0.177 seconds
Resetting global fix info from restart file:
  fix style: npt, fix ID: 2

CITE-CITE-CITE-CITE-CITE-CITE-CITE-CITE-CITE-CITE-CITE-CITE-CITE

Your simulation uses code contributions which should be cited:
- @article{cjiang2012
The log file lists these citations in BibTeX format.

CITE-CITE-CITE-CITE-CITE-CITE-CITE-CITE-CITE-CITE-CITE-CITE-CITE

All restart file global fix info was re-assigned
Unused restart file peratom fix info:
  fix style: STORE, fix ID: spatialbins_COMPUTE_STORE
Neighbor list info ...
  update every 1 steps, delay 10 steps, check yes
  max neighbors/atom: 2000, page size: 100000
  master list distance cutoff = 8.28721
  ghost atom cutoff = 8.28721
  binsize = 4.143605, bins = 25 25 148
  3 neighbor lists, perpetual/occasional/extra = 3 0 0
  (1) pair eam/alloy, perpetual, skip from (3)
      attributes: half, newton on
      pair build: skip
      stencil: none
      bin: none
  (2) pair edip/multi, perpetual
      attributes: full, newton on
      pair build: full/bin/atomonly
      stencil: full/bin/3d
      bin: standard
  (3) neighbor class addition, perpetual, half/full from (2)
      attributes: half, newton on
      pair build: halffull/newton
      stencil: none
      bin: none
Setting up Verlet run ...
  Unit style    : metal
  Current step  : 11000105
  Time step     : 0.00025
Per MPI rank memory allocation (min/avg/max) = 4.711 | 12.04 | 17.25 Mbytes
Step Time Temp PotEng E_pair TotEng Press Volume Lx Ly Lz CPULeft 
11000105            0     300.5002   -1855774.1   -1855774.1   -1838916.4   -143.82712    6416132.8    102.58512    102.55917      609.838            0 
11010000      2.47375    299.60363   -1855751.6   -1855751.6   -1838944.1    68.557506    6416323.5     102.5855    102.56184      609.838    25285.686 
11020000      4.97375     299.5519   -1855751.9   -1855751.9   -1838947.3    -41.26714    6416795.7    102.58958    102.56531      609.838    25088.117 
11030000      7.47375    299.93547   -1855756.8   -1855756.8   -1838930.7    187.58805    6415186.7    102.57118    102.55798      609.838    24852.996 
11040000      9.97375    299.82689   -1855760.3   -1855760.3   -1838940.3    29.262815    6415426.3    102.57398    102.55902      609.838    24614.429 
11050000     12.47375    300.49157   -1855762.1   -1855762.1   -1838904.8   -65.972266    6415446.5    102.57903    102.55428      609.838    24351.192 
11060000     14.97375    300.02077     -1855765     -1855765   -1838934.1    -29.82236    6414435.8    102.57196    102.54519      609.838    24088.868 
11070000     17.47375    299.85009   -1855745.8   -1855745.8   -1838924.5   -314.68627    6414413.7    102.56021     102.5566      609.838    23824.349 
11080000     19.97375    299.95042   -1855765.4   -1855765.4   -1838938.5    -51.29874    6414536.5     102.5668    102.55197      609.838     23557.61 
11090000     22.47375     299.2896   -1855728.3   -1855728.3   -1838938.4   -219.12611    6414602.6    102.57544    102.54439      609.838    23295.185 
11100000     24.97375    299.94306   -1855742.9   -1855742.9   -1838916.4    107.75312    6414420.2    102.56915    102.54775      609.838    23034.782 
11110000     27.47375    300.16252   -1855765.4   -1855765.4   -1838926.6   -63.239046    6414753.4    102.57052    102.55172      609.838     22778.67 
11120000     29.97375      300.073   -1855773.3   -1855773.3   -1838939.5   -56.936078    6415820.2    102.58738    102.55191      609.838    22524.051 
11130000     32.47375    299.72034   -1855763.9   -1855763.9   -1838949.9    101.30239    6414901.4    102.56373    102.56087      609.838    22272.429 
11140000     34.97375    299.82115   -1855762.1   -1855762.1   -1838942.4    8.1093557    6415762.5    102.57639    102.56198      609.838    22021.007 
11150000     37.47375    300.15594   -1855741.1   -1855741.1   -1838902.7    31.287338    6415914.1    102.57275    102.56805      609.838    21767.536 
11160000     39.97375    300.60386   -1855763.5   -1855763.5     -1838900   -122.99768    6415457.4    102.58194    102.55155      609.838    21512.123 
11170000     42.47375    299.51867   -1855767.1   -1855767.1   -1838964.4    115.10152    6414606.8    102.56907    102.55082      609.838    21255.794 
11180000     44.97375    299.87896   -1855759.7   -1855759.7   -1838936.8    90.514607    6413948.5    102.56406     102.5453      609.838    20999.023 
11190000     47.47375    299.99698   -1855773.7   -1855773.7   -1838944.1    55.100743    6412924.1    102.56464    102.52835      609.838    20741.856 
11200000     49.97375    299.65039   -1855723.2   -1855723.2   -1838913.1   -131.13591    6414105.4    102.56859    102.54328      609.838     20482.55 
11210000     52.47375    300.21738   -1855758.1   -1855758.1   -1838916.2     18.86699    6414022.3    102.57043    102.54011      609.838    20223.678 
11220000     54.97375    299.71195   -1855763.3   -1855763.3   -1838949.8   -168.09817    6414474.7    102.57523    102.54255      609.838    19966.671 
11230000     57.47375    299.86745     -1855743     -1855743   -1838920.8   -20.404144    6414826.5    102.57514    102.54826      609.838    19711.862 
11240000     59.97375    300.03817   -1855778.4   -1855778.4   -1838946.6   -128.62082    6415739.3    102.57288    102.56512      609.838    19456.743 
11250000     62.47375    299.90789   -1855762.4   -1855762.4   -1838937.9   -118.98342    6415758.2    102.58135    102.55695      609.838    19203.613 
11260000     64.97375    300.43554   -1855758.8   -1855758.8   -1838904.7   -63.805259    6416060.3    102.58656    102.55658      609.838    18950.088 
11270000     67.47375    299.37719   -1855761.5   -1855761.5   -1838966.8   -39.748503    6416530.7    102.58946    102.56119      609.838    18695.835 
11280000     69.97375    299.82407   -1855756.4   -1855756.4   -1838936.6   -40.220339    6415295.1    102.57082    102.56007      609.838    18440.563 
11290000     72.47375    299.66741   -1855739.7   -1855739.7   -1838928.7   -66.384625    6415327.9    102.57727    102.55415      609.838    18184.727 
11300000     74.97375    300.11758   -1855751.1   -1855751.1   -1838914.8    122.25886      6413934    102.56476    102.54438      609.838    17927.885 
11310000     77.47375    300.02977   -1855765.5   -1855765.5   -1838934.1   -112.77307    6413970.3     102.5603    102.54942      609.838    17671.008 
11320000     79.97375    299.18529   -1855727.1   -1855727.1   -1838943.1   -62.790871    6414055.2    102.56884    102.54224      609.838      17414.3 
11330000     82.47375    299.72353   -1855770.6   -1855770.6   -1838956.4    41.244243    6414686.2    102.57234    102.54882      609.838    17157.703 
11340000     84.97375    299.67893   -1855755.5   -1855755.5   -1838943.8   -5.2289262    6414893.2    102.57245    102.55202      609.838    16902.105 
11350000     87.47375    299.54038   -1855757.9   -1855757.9   -1838953.9    77.797663    6414941.3    102.58193    102.54331      609.838     16646.55 
11360000     89.97375    300.11954   -1855755.4   -1855755.4     -1838919    85.935403    6415531.6    102.58672    102.54796      609.838    16391.899 
11370000     92.47375    300.44907   -1855774.1   -1855774.1   -1838919.2    118.83173    6415189.9    102.56875    102.56047      609.838    16137.146 
11380000     94.97375    299.90074   -1855747.2   -1855747.2   -1838923.1    98.785088    6415633.2     102.5834     102.5529      609.838    15882.262 
11390000     97.47375    300.12343   -1855798.2   -1855798.2   -1838961.6    19.454027    6415255.7    102.57753    102.55273      609.838    15627.083 
11400000     99.97375    300.23241   -1855748.7   -1855748.7   -1838905.9   -177.47272    6414748.6    102.57168    102.55048      609.838    15371.108 
11410000    102.47375    299.96609   -1855741.4   -1855741.4   -1838913.6   -77.469365    6414181.7    102.57229     102.5408      609.838    15115.242 
11420000    104.97375     300.4201   -1855755.2   -1855755.2   -1838901.9    22.272124    6413986.5    102.56485    102.54513      609.838    14858.131 
11430000    107.47375    299.93702   -1855768.8   -1855768.8   -1838942.6   -146.69273    6413786.2    102.56153    102.54524      609.838    14601.258 
11440000    109.97375    300.05244   -1855761.4   -1855761.4   -1838928.8   -36.308046      6414308    102.56553    102.54958      609.838    14344.307 
11450000    112.47375     300.0495   -1855768.2   -1855768.2   -1838935.7   -101.16472    6414695.4    102.57735    102.54396      609.838     14087.74 
11460000    114.97375    299.64419   -1855742.6   -1855742.6   -1838932.9   -29.405546    6415114.2    102.57136    102.55664      609.838    13831.714 
11470000    117.47375    300.38382   -1855760.6   -1855760.6   -1838909.4    147.68345    6414839.2    102.58075    102.54286      609.838    13575.986 
11480000    119.97375     299.5957   -1855759.1   -1855759.1   -1838952.1    -77.00924    6416092.8    102.58294    102.56071      609.838     13320.26 
11490000    122.47375    299.81533   -1855761.6   -1855761.6   -1838942.3    389.81632    6415303.1    102.57661    102.55441      609.838     13064.76 
11500000    124.97375    300.10821   -1855778.4   -1855778.4   -1838942.7    139.36248    6415157.9    102.57649    102.55221      609.838    12809.143 
11510000    127.47375    300.45626   -1855776.1   -1855776.1   -1838920.8    71.120503    6414529.9    102.57189    102.54677      609.838    12553.062 
11520000    129.97375    300.21725   -1855775.4   -1855775.4   -1838933.5   -240.27375    6415142.8     102.5784    102.55007      609.838    12296.772 
11530000    132.47375    300.51538   -1855772.4   -1855772.4   -1838913.8    -42.41734    6414208.5    102.56684    102.54668      609.838    12040.053 
11540000    134.97375    299.52476   -1855749.8   -1855749.8   -1838946.7    96.895145    6413140.4    102.55204    102.54441      609.838     11783.31 
11550000    137.47375    300.40529   -1855769.3   -1855769.3   -1838916.9   -59.212891    6413593.3    102.56767    102.53602      609.838    11526.525 
11560000    139.97375    299.89141   -1855761.7   -1855761.7     -1838938    57.083841    6413958.9    102.57003    102.53951      609.838    11270.012 
11570000    142.47375    299.69735   -1855765.7   -1855765.7   -1838952.9   -265.08254    6415432.7    102.57841    102.55469      609.838    11013.618 
11580000    144.97375    300.22205   -1855761.4   -1855761.4   -1838919.3    6.7863289    6415259.1    102.57612     102.5542      609.838    10757.533 
11590000    147.47375    299.97593   -1855761.1   -1855761.1   -1838932.7    24.608124    6415970.5    102.57868    102.56302      609.838    10501.975 
11600000    149.97375    300.12774   -1855786.9   -1855786.9   -1838950.1    29.036729    6415582.3    102.57786    102.55762      609.838    10246.483 
11610000    152.47375    300.08192   -1855741.4   -1855741.4   -1838907.1   -97.737567      6415770    102.58673    102.55176      609.838    9991.3081 
11620000    154.97375    300.36407   -1855771.6   -1855771.6   -1838921.5   -46.565508    6415589.5    102.59446    102.54115      609.838    9735.4943 
11630000    157.47375    299.98632   -1855763.9   -1855763.9   -1838934.9   -129.10374    6415301.1    102.57644    102.55456      609.838    9479.6715 
11640000    159.97375    300.03979     -1855739     -1855739   -1838907.1   -139.29471    6414289.5    102.56578    102.54904      609.838     9223.493 
11650000    162.47375    299.60234   -1855741.6   -1855741.6   -1838934.2    182.58484    6413144.2    102.56755    102.52896      609.838     8967.124 
11660000    164.97375     300.2548   -1855763.3   -1855763.3   -1838919.3   -79.649259    6413461.3    102.56179    102.53978      609.838    8710.6603 
11670000    167.47375    299.47007   -1855750.3   -1855750.3   -1838950.3   -45.128591    6414410.7    102.57094    102.54582      609.838    8454.3045 
11680000    169.97375    300.17488   -1855736.5   -1855736.5   -1838896.9   -7.4870507    6414627.9    102.57103     102.5492      609.838    8198.1943 
11690000    172.47375    300.06524   -1855752.4   -1855752.4   -1838919.1   -90.868952    6415205.3    102.57273    102.55673      609.838    7942.1199 
11700000    174.97375    299.84363   -1855745.3   -1855745.3   -1838924.4   -33.680193    6415404.6    102.57104     102.5616      609.838    7686.3032 
11710000    177.47375    300.56947   -1855778.1   -1855778.1   -1838916.5    74.423835    6415612.7    102.58862    102.54736      609.838    7430.4747 
11720000    179.97375    300.33596   -1855799.9   -1855799.9   -1838951.3   -19.711684    6415556.4    102.57594    102.55913      609.838    7174.8683 
11730000    182.47375     300.5426   -1855774.5   -1855774.5   -1838914.4    52.908603    6416515.4    102.58829    102.56211      609.838    6919.1611 
11740000    184.97375    300.68597   -1855777.9   -1855777.9   -1838909.7    6.7843476    6415049.3    102.57031    102.55665      609.838    6663.0573 
11750000    187.47375    300.17908   -1855746.5   -1855746.5   -1838906.7   -82.657671    6414964.3    102.57801     102.5476      609.838    6406.7553 
11760000    189.97375    300.49079   -1855761.6   -1855761.6   -1838904.4     56.79799    6413800.7    102.55468    102.55233      609.838    6150.5361 
11770000    192.47375    299.98189     -1855773     -1855773   -1838944.3    68.459853    6413970.1     102.5636    102.54611      609.838      5894.25 
11780000    194.97375    299.52228   -1855721.8   -1855721.8   -1838918.9    -35.66837    6413945.1    102.56804    102.54127      609.838    5637.9637 
11790000    197.47375     300.1448   -1855754.9   -1855754.9   -1838917.1    4.7664222    6413577.9    102.56692    102.53652      609.838       5381.7 
11800000    199.97375    300.15784   -1855772.2   -1855772.2   -1838933.6    67.352658    6414398.1    102.57365    102.54291      609.838    5125.5627 
11810000    202.47375    299.76798   -1855749.2   -1855749.2   -1838932.5    185.02707      6414334    102.56829    102.54724      609.838     4869.491 
11820000    204.97375    300.15653     -1855770     -1855770   -1838931.5     207.0479    6415103.8    102.58204     102.5458      609.838    4613.3701 
11830000    207.47375    299.87174   -1855774.1   -1855774.1   -1838951.5    -36.85711    6416126.3    102.58395    102.56024      609.838    4357.3458 
11840000    209.97375    300.35812   -1855775.2   -1855775.2   -1838925.4   -45.778126    6415182.4    102.58043    102.54867      609.838     4101.252 
11850000    212.47375    300.18921   -1855809.9   -1855809.9   -1838969.5   -305.97557    6414798.6    102.57326     102.5497      609.838    3845.0877 
11860000    214.97375    300.02892   -1855753.1   -1855753.1   -1838921.8   -160.86142    6415945.3    102.58236    102.55893      609.838     3588.913 
11870000    217.47375    299.66451     -1855762     -1855762   -1838951.1    104.54842    6414349.2    102.57852    102.53725      609.838    3332.7171 
11880000    219.97375     300.5787   -1855780.7   -1855780.7   -1838918.6   -228.10678    6414741.4    102.56879    102.55325      609.838    3076.5205 
11890000    222.47375    300.17034   -1855781.6   -1855781.6   -1838942.3   -40.081134    6414581.3    102.57526    102.54422      609.838    2820.2995 
11900000    224.97375    300.19682   -1855779.8   -1855779.8     -1838939    -64.14056      6414638    102.58064    102.53975      609.838    2564.1103 
11910000    227.47375    299.31101   -1855751.9   -1855751.9   -1838960.8    59.593622    6414810.3    102.57425    102.54889      609.838    2307.9514 
11920000    229.97375    299.75131   -1855772.7   -1855772.7     -1838957   -218.66075    6415356.8    102.57163    102.56025      609.838    2051.8344 
11930000    232.47375    300.15749   -1855747.2   -1855747.2   -1838908.6   -11.446895    6415394.3     102.5815    102.55098      609.838     1795.718 
11940000    234.97375    299.71908     -1855777     -1855777   -1838963.1   -163.19095    6416486.7    102.59024     102.5597      609.838    1539.5858 
11950000    237.47375    299.45333   -1855749.2   -1855749.2   -1838950.1    71.144879    6415493.1    102.58063    102.55343      609.838    1283.4715 
11960000    239.97375     300.1081   -1855746.4   -1855746.4   -1838910.6    130.08324      6415676    102.57872    102.55827      609.838    1027.3476 
11970000    242.47375    299.63971   -1855741.1   -1855741.1   -1838931.6   -161.92767    6415326.2    102.58298    102.54841      609.838    771.18892 
11980000    244.97375    299.49991   -1855749.9   -1855749.9   -1838948.3   -79.790694    6414577.3    102.57251    102.54691      609.838    515.02815 
11990000    247.47375    299.62676   -1855737.3   -1855737.3   -1838928.6   -9.1492341    6415116.5    102.57286    102.55517      609.838     258.8557 
12000000    249.97375      300.032   -1855753.8   -1855753.8   -1838922.3    93.814773    6414002.9    102.56669    102.54355      609.838    2.6897312 
12000105          250    300.11997   -1855758.5   -1855758.5     -1838922    84.557971    6414847.4    102.57478    102.54896      609.838            0 
Loop time of 25616.5 on 96 procs for 1000000 steps with 434002 atoms

Performance: 0.843 ns/day, 28.463 hours/ns, 39.037 timesteps/s
100.0% CPU use with 96 MPI tasks x 1 OpenMP threads

MPI task timing breakdown:
Section |  min time  |  avg time  |  max time  |%varavg| %total
---------------------------------------------------------------
Pair    | 2.7614     | 18422      | 24513      |5308.9 | 71.92
Neigh   | 0.010748   | 61.205     | 91.352     | 351.5 |  0.24
Comm    | 1.6718     | 2708.8     | 6844.2     |4245.2 | 10.57
Output  | 1.9031     | 1.9045     | 1.9096     |   0.1 |  0.01
Modify  | 512.75     | 4345.4     | 25504      |12151.5 | 16.96
Other   |            | 76.89      |            |       |  0.30

Nlocal:        4520.85 ave        6201 max           0 min
Histogram: 12 0 0 0 0 12 0 14 22 36
Nghost:        8112.23 ave       11367 max           0 min
Histogram: 12 0 0 0 9 3 0 11 41 20
Neighs:         0.00000 ave           0 max           0 min
Histogram: 96 0 0 0 0 0 0 0 0 0
FullNghs:      866623.0 ave 1.30782e+06 max           0 min
Histogram: 12 0 0 5 7 1 22 9 12 28

Total # of neighbors = 83195840
Ave neighs/atom = 191.69460
Neighbor list builds = 2601
Dangerous builds = 0
System init for write_restart ...
System init for write_data ...
Total wall time: 7:06:57
