LAMMPS (29 Sep 2021)
  using 1 OpenMP thread(s) per MPI task
Reading data file ...
  orthogonal box = (-0.51462936 -0.51941335 0.0000000) to (101.83843 101.84322 530.60000)
  2 by 2 by 6 MPI processor grid
  reading atoms ...
  425652 atoms
  reading velocities ...
  425652 velocities
  read_data CPU = 4.856 seconds
212828 atoms in group g_left
212824 atoms in group g_right

CITE-CITE-CITE-CITE-CITE-CITE-CITE-CITE-CITE-CITE-CITE-CITE-CITE

Your simulation uses code contributions which should be cited:
- GPU package (short-range, long-range and three-body potentials):
The log file lists these citations in BibTeX format.

CITE-CITE-CITE-CITE-CITE-CITE-CITE-CITE-CITE-CITE-CITE-CITE-CITE


--------------------------------------------------------------------------
- Using acceleration for eam/alloy:
-  with 12 proc(s) per device.
-  Horizontal vector operations: ENABLED
-  Shared memory system: No
--------------------------------------------------------------------------
Device 0: Tesla V100-SXM2-32GB, 80 CUs, 28/32 GB, 1.5 GHZ (Mixed Precision)
Device 1: Tesla V100-SXM2-32GB, 80 CUs, 1.5 GHZ (Mixed Precision)
--------------------------------------------------------------------------

Initializing Device and compiling on process 0...Done.
Initializing Devices 0-1 on core 0...Done.
Initializing Devices 0-1 on core 1...Done.
Initializing Devices 0-1 on core 2...Done.
Initializing Devices 0-1 on core 3...Done.
Initializing Devices 0-1 on core 4...Done.
Initializing Devices 0-1 on core 5...Done.
Initializing Devices 0-1 on core 6...Done.
Initializing Devices 0-1 on core 7...Done.
Initializing Devices 0-1 on core 8...Done.
Initializing Devices 0-1 on core 9...Done.
Initializing Devices 0-1 on core 10...Done.
Initializing Devices 0-1 on core 11...Done.

Setting up Verlet run ...
  Unit style    : metal
  Current step  : 0
  Time step     : 0.00025
Per MPI rank memory allocation (min/avg/max) = 8.288 | 10.15 | 11.09 Mbytes
Step Time Temp Press PotEng KinEng TotEng Volume 
       0            0    8483.5276    86528.522   -1767702.2    466761.23     -1300941    5559164.7 
     100        0.025    8483.1535    86649.063     -1767722    466740.64   -1300981.4    5548687.6 
     200         0.05    8482.8382    86802.169   -1767712.3     466723.3     -1300989    5538210.4 
     300        0.075    8482.9864    86946.582   -1767723.6    466731.45   -1300992.2    5527733.3 
     400          0.1    8482.2023    87098.226   -1767701.9    466688.31   -1301013.5    5517256.2 
     500        0.125    8482.1367        87279   -1767709.2     466684.7   -1301024.5      5506779 
     600         0.15    8483.1474     87476.38   -1767737.9    466740.31   -1300997.6    5496301.9 
     700        0.175    8482.8312    87682.427   -1767701.1    466722.91   -1300978.1    5485824.8 
     800          0.2    8482.7796    87843.621     -1767717    466720.07   -1300996.9    5475347.7 
     900        0.225    8482.1555    88016.427   -1767707.2    466685.74   -1301021.4    5464870.5 
    1000         0.25    8482.2232    88188.972   -1767698.8    466689.46   -1301009.3    5454393.4 
    1100        0.275    8483.2065    88348.512   -1767738.3    466743.56   -1300994.8    5443916.3 
    1200          0.3    8482.8167    88523.487   -1767714.7    466722.11   -1300992.6    5433439.1 
    1300        0.325     8483.042    88685.743     -1767729    466734.51   -1300994.5      5422962 
    1400         0.35    8482.6157    88867.924   -1767700.2    466711.06   -1300989.2    5412484.9 
    1500        0.375    8482.9479    89034.583   -1767702.3    466729.33     -1300973    5402007.8 
    1600          0.4     8483.762    89237.252   -1767731.6    466774.13   -1300957.4    5391530.6 
    1700        0.425    8483.5632    89457.823   -1767707.4    466763.18   -1300944.2    5381053.5 
    1800         0.45    8483.9617     89644.29   -1767723.9    466785.11   -1300938.8    5370576.4 
    1900        0.475    8483.8978    89818.504   -1767712.2     466781.6   -1300930.6    5360099.2 
    2000          0.5    8484.7144    89980.701   -1767760.9    466826.52   -1300934.4    5349622.1 
    2100        0.525    8483.1375    90166.813   -1767688.3    466739.76   -1300948.5      5339145 
    2200         0.55    8483.2103        90309   -1767705.6    466743.77   -1300961.9    5328667.8 
    2300        0.575    8483.0604    90479.395   -1767702.6    466735.52   -1300967.1    5318190.7 
    2400          0.6    8484.4491    90582.191   -1767774.6    466811.93   -1300962.7    5307713.6 
    2500        0.625    8490.3886    90614.524   -1768104.2    467138.72   -1300965.4    5297236.5 
    2600         0.65    8505.2357    90608.885   -1768934.1     467955.6   -1300978.5    5286759.3 
    2700        0.675    8493.4711    92302.198   -1768298.4    467308.32     -1300990    5276282.2 
    2800          0.7    8477.8909    94621.367   -1767430.8     466451.1   -1300979.7    5265805.1 
    2900        0.725    8440.6224    97408.362   -1765366.8     464400.6   -1300966.2    5255327.9 
    3000         0.75     8411.427    100456.63   -1763756.7    462794.27   -1300962.4    5244850.8 
    3100        0.775    8386.3457    103331.19   -1762379.8    461414.31   -1300965.5    5234373.7 
    3200          0.8    8347.3514    105855.62   -1760236.2    459268.86   -1300967.3    5223896.6 
    3300        0.825    8320.5697    108967.26   -1758772.6    457795.33   -1300977.2    5213419.4 
    3400         0.85     8285.034    111843.06   -1756824.7    455840.17   -1300984.5    5202942.3 
    3500        0.875    8257.1973    114750.77   -1755303.8     454308.6   -1300995.2    5192465.2 
    3600          0.9    8225.3849     117827.4   -1753562.8    452558.29   -1301004.5      5181988 
    3700        0.925    8192.2271    120869.45   -1751739.9    450733.96   -1301005.9    5171510.9 
    3800         0.95    8164.8024    123710.05   -1750219.3    449225.06   -1300994.3    5161033.8 
    3900        0.975     8133.112    126529.83   -1748472.1    447481.46   -1300990.7    5150556.7 
    4000            1    8099.0897     129554.5     -1746613    445609.57   -1301003.5    5140079.5 
    4100        1.025     8046.171    133753.43   -1743716.1    442697.99   -1301018.1    5129602.4 
    4200         1.05    7994.1393    138163.19   -1740843.8    439835.23   -1301008.6    5119125.3 
    4300        1.075    7927.8138    142009.83   -1737180.9    436186.02   -1300994.9    5108648.1 
    4400          1.1    7874.6035    146711.74   -1734243.7     433258.4   -1300985.3      5098171 
    4500        1.125    7819.2504    151281.53   -1731186.1    430212.89   -1300973.2    5087693.9 
    4600         1.15    7756.2636    155435.76   -1727706.1    426747.37   -1300958.7    5077216.8 
    4700        1.175    7703.5166    160259.09   -1724800.5    423845.25   -1300955.3    5066739.6 
    4800          1.2    7646.5549    165154.97   -1721666.5    420711.23   -1300955.3    5056262.5 
    4900        1.225    7586.2117    169935.54   -1718325.7    417391.17   -1300934.5    5045785.4 
    5000         1.25    7529.5489    175175.29   -1715185.6     414273.6     -1300912    5035308.2 
    5100        1.275    7469.3412    180427.36   -1711887.6    410960.99   -1300926.6    5024831.1 
    5200          1.3    7410.8575    185493.63   -1708679.6    407743.23   -1300936.4      5014354 
    5300        1.325    7351.2504    190698.39     -1705392    404463.66   -1300928.3    5003876.8 
    5400         1.35    7291.7025    196093.73   -1702118.8    401187.36   -1300931.5    4993399.7 
    5500        1.375     7231.114    201292.46     -1698805     397853.8   -1300951.2    4982922.6 
    5600          1.4    7171.3161    206864.51   -1695516.2    394563.73   -1300952.5    4972445.5 
    5700        1.425    7111.0005    212436.03   -1692175.6    391245.18   -1300930.5    4961968.3 
    5800         1.45    7051.9822     217880.5   -1688928.4    387998.02   -1300930.3    4951491.2 
    5900        1.475     6989.956    223408.63     -1685528    384585.35   -1300942.6    4941014.1 
    6000          1.5    6931.8838    229091.76   -1682324.9    381390.24   -1300934.7    4930536.9 
    6100        1.525    6871.7094    234866.99   -1679009.5    378079.46     -1300930    4920059.8 
    6200         1.55    6810.4564    240704.91   -1675651.9    374709.34   -1300942.6    4909582.7 
    6300        1.575    6750.1434    246622.52   -1672338.8    371390.93   -1300947.9    4899105.6 
    6400          1.6    6688.8115    252575.97   -1668952.1    368016.47   -1300935.6    4888628.4 
    6500        1.625    6630.6104    258557.37   -1665746.6    364814.26   -1300932.4    4878151.3 
    6600         1.65    6569.6672    264611.64   -1662410.3    361461.18   -1300949.1    4867674.2 
    6700        1.675    6507.7317    270724.81   -1659011.7    358053.51   -1300958.2      4857197 
    6800          1.7     6449.142    276802.82   -1655788.3    354829.92   -1300958.4    4846719.9 
    6900        1.725    6398.7148    282152.19   -1653024.5    352055.43     -1300969    4836242.8 
    7000         1.75    6351.7029    286973.57   -1650437.8    349468.85     -1300969    4825765.7 
    7100        1.775    6302.5574    291387.36   -1647714.1    346764.88   -1300949.2    4815288.5 
    7200          1.8    6267.6639    295577.58   -1645784.8    344845.05   -1300939.8    4804811.4 
    7300        1.825    6232.1515     300019.7   -1643831.9    342891.17   -1300940.7    4794334.3 
    7400         1.85    6188.4836    304594.86   -1641431.9    340488.57   -1300943.3    4783857.1 
    7500        1.875    6149.7206    308625.21   -1639304.9    338355.84   -1300949.1      4773380 
    7600          1.9    6123.0091    311431.99   -1637855.1    336886.19   -1300968.9    4762902.9 
    7700        1.925    6116.7151    312905.04   -1637520.2    336539.89   -1300980.3    4752425.7 
    7800         1.95    6094.1634    313816.61   -1636272.5     335299.1   -1300973.4    4741948.6 
    7900        1.975    6084.2022    315009.23   -1635721.6    334751.04   -1300970.6    4731471.5 
    8000            2    6083.4187    316699.13   -1635695.2    334707.93   -1300987.2    4720994.4 
    8100        2.025    6060.4519    318818.58   -1634446.8    333444.31   -1301002.5    4710517.2 
    8200         2.05    6061.2367    320074.55   -1634478.3    333487.48   -1300990.8    4700040.1 
    8300        2.075     6050.648    320877.58   -1633884.3     332904.9   -1300979.4      4689563 
    8400          2.1    6020.9792    322631.89   -1632259.8    331272.53   -1300987.3    4679085.8 
    8500        2.125    6011.9838    325757.93   -1631759.4     330777.6   -1300981.8    4668608.7 
    8600         2.15     5970.395    328757.32     -1629450     328489.4   -1300960.6    4658131.6 
    8700        2.175    5963.6081    331312.25   -1629074.2    328115.99   -1300958.2    4647654.5 
    8800          2.2    5926.1749    333897.15   -1627021.7    326056.43   -1300965.3    4637177.3 
    8900        2.225     5905.203    337084.03   -1625865.4    324902.56   -1300962.8    4626700.2 
    9000         2.25    5862.8274    341190.03   -1623529.2    322571.06   -1300958.1    4616223.1 
    9100        2.275    5807.8013    346069.99   -1620504.5    319543.54   -1300960.9    4605745.9 
    9200          2.3    5770.5103    350813.46   -1618448.6     317491.8   -1300956.8    4595268.8 
    9300        2.325    5711.1764    355882.81   -1615172.8    314227.27   -1300945.6    4584791.7 
    9400         2.35    5675.5096    361303.34   -1613217.3    312264.89   -1300952.5    4574314.6 
    9500        2.375    5615.3919    366952.64   -1609927.9    308957.24   -1300970.6    4563837.4 
    9600          2.4    5575.9843    373188.35   -1607755.1    306789.04     -1300966    4553360.3 
    9700        2.425    5518.9431    379207.79   -1604605.8    303650.65   -1300955.1    4542883.2 
    9800         2.45     5464.077    385575.76   -1601586.3    300631.93   -1300954.4      4532406 
    9900        2.475    5410.1861    393002.52   -1598628.3    297666.87   -1300961.4    4521928.9 
   10000          2.5    5351.7461    400269.82   -1595403.8    294451.52   -1300952.3    4511451.8 
   10100        2.525    5289.4967    407138.88   -1591979.1    291026.57   -1300952.6    4500974.7 
   10200         2.55    5226.1864    414522.87   -1588519.6    287543.26   -1300976.3    4490497.5 
   10300        2.575     5158.543    422375.27   -1584817.7    283821.54   -1300996.2    4480020.4 
   10400          2.6    5089.6765    430123.27   -1581026.1    280032.52   -1300993.6    4469543.3 
   10500        2.625    5016.7137    438156.21     -1577006    276018.14   -1300987.8    4459066.1 
   10600         2.65    4944.9398    446531.35   -1573066.3    272069.15   -1300997.1      4448589 
   10700        2.675    4865.3264    454955.89   -1568696.3    267688.85   -1301007.5    4438111.9 
   10800          2.7    4791.3674    463286.01   -1564602.6    263619.65     -1300983    4427634.7 
   10900        2.725    4716.8666    471539.04     -1560483    259520.63   -1300962.3    4417157.6 
   11000         2.75    4641.9199    479904.32     -1556372    255397.09   -1300974.9    4406680.5 
   11100        2.775    4571.9849    488214.88   -1552538.2    251549.29   -1300988.9    4396203.4 
   11200          2.8    4501.4237    496168.03   -1548651.8    247667.03   -1300984.8    4385726.2 
   11300        2.825    4433.8857    503814.77   -1544931.4    243951.11   -1300980.3    4375249.1 
   11400         2.85    4366.4505    511192.29   -1541233.8    240240.84   -1300992.9      4364772 
   11500        2.875    4308.9475    518202.91     -1538072    237077.04   -1300994.9    4354294.8 
   11600          2.9    4246.3037    524574.87   -1534610.5     233630.4   -1300980.1    4343817.7 
   11700        2.925     4186.064    530247.95   -1531291.8    230316.03   -1300975.7    4333340.6 
   11800         2.95    4123.8292    536073.69   -1527880.5    226891.88   -1300988.6    4322863.5 
   11900        2.975    4067.5383    542167.74     -1524791    223794.78   -1300996.2    4312386.3 
   12000            3    4012.5584    547679.26   -1521765.7     220769.8   -1300995.9    4301909.2 
   12100        3.025    3986.6348    551694.34   -1520339.3    219343.49   -1300995.8    4291432.1 
   12200         3.05    3949.3594    554899.64   -1518281.4    217292.61   -1300988.7    4280954.9 
   12300        3.075     3912.549     558685.7   -1516228.5    215267.31   -1300961.1    4270477.8 
   12400          3.1    3887.0904    563033.89   -1514809.4    213866.58   -1300942.8    4260000.7 
   12500        3.125    3838.1689    567619.65   -1512126.3    211174.94   -1300951.4    4249523.6 
   12600         3.15    3828.8186    569840.95   -1511623.4    210660.49   -1300962.9    4239046.4 
   12700        3.175    3826.0315    569960.73   -1511459.4    210507.14   -1300952.3    4228569.3 
   12800          3.2    3804.1941    570451.42   -1510250.1    209305.65   -1300944.4    4218092.2 
   12900        3.225    3814.7647    571672.04     -1510830    209887.25   -1300942.7      4207615 
   13000         3.25    3790.9399    573749.63   -1509534.3    208576.42   -1300957.9    4197137.9 
   13100        3.275    3802.7356    574976.72     -1510195    209225.41   -1300969.6    4186660.8 
   13200          3.3    3808.3333    575609.75   -1510506.7    209533.39   -1300973.3    4176183.7 
   13300        3.325    3794.3717    577074.68   -1509744.3    208765.23   -1300979.1    4165706.5 
   13400         3.35    3798.2668    579758.97   -1509959.6    208979.54   -1300980.1    4155229.4 
   13500        3.375      3778.98    583398.59   -1508887.6    207918.39   -1300969.2    4144752.3 
   13600          3.4      3776.85    586495.13   -1508761.7    207801.19   -1300960.5    4134275.1 
   13700        3.425    3764.4529    589172.88   -1508076.4    207119.11   -1300957.3      4123798 
   13800         3.45    3747.1147    592191.39     -1507128    206165.16   -1300962.9    4113320.9 
   13900        3.475    3722.4091    596165.38   -1505779.1    204805.87   -1300973.2    4102843.7 
   14000          3.5    3680.2809    602228.78   -1503464.4    202487.99   -1300976.4    4092366.6 
   14100        3.525    3641.0825    607995.83   -1501307.5     200331.3   -1300976.2    4081889.5 
   14200         3.55    3593.3606    614361.75   -1498679.9    197705.66   -1300974.3    4071412.4 
   14300        3.575    3537.4223    622026.69   -1495607.3    194627.95   -1300979.4    4060935.2 
   14400          3.6      3483.74    629784.72   -1492651.7    191674.37   -1300977.3    4050458.1 
   14500        3.625    3418.3913     637763.8     -1489044     188078.9   -1300965.1      4039981 
   14600         3.65    3359.5048    646499.88   -1485806.3    184838.98   -1300967.4    4029503.8 
   14700        3.675    3285.7028    654963.18   -1481752.9    180778.42   -1300974.5    4019026.7 
   14800          3.7    3218.2344    664243.95   -1478036.4    177066.33   -1300970.1    4008549.6 
   14900        3.725    3139.6313    674050.44   -1473714.5    172741.61   -1300972.8    3998072.5 
   15000         3.75    3067.0481    683590.75   -1469728.5     168748.1   -1300980.4    3987595.3 
   15100        3.775    2984.6407    693354.55   -1465183.4    164214.07   -1300969.3    3977118.2 
   15200          3.8    2909.5572    703253.87   -1461028.8       160083   -1300945.8    3966641.1 
   15300        3.825    2827.9623    713115.82   -1456535.8    155593.67   -1300942.2    3956163.9 
   15400         3.85    2752.9734    723279.35   -1452404.7     151467.8   -1300936.9    3945686.8 
   15500        3.875    2673.1204    733308.96   -1448004.8    147074.31   -1300930.5    3935209.7 
   15600          3.9    2594.9963    743119.74     -1443709    142775.94   -1300933.1    3924732.6 
   15700        3.925    2519.0142    752986.07   -1439535.1    138595.43   -1300939.7    3914255.4 
   15800         3.95    2446.0702    762943.58   -1435521.1    134582.07   -1300939.1    3903778.3 
   15900        3.975    2376.2876    772653.06   -1431682.1    130742.65   -1300939.4    3893301.2 
   16000            4    2305.2986    782038.78   -1427783.3    126836.86   -1300946.5      3882824 
   16100        4.025    2237.6679     791214.5     -1424067    123115.84   -1300951.2    3872346.9 
   16200         4.05     2172.772    800134.24   -1420491.7    119545.29   -1300946.4    3861869.8 
   16300        4.075    2110.7346    808952.95   -1417068.1    116132.01     -1300936    3851392.6 
   16400          4.1    2047.3848    817738.75   -1413579.4    112646.52   -1300932.8    3840915.5 
   16500        4.125    1984.7381    826429.74     -1410125    109199.72   -1300925.3    3830438.4 
   16600         4.15    1922.9918    835290.23   -1406722.2    105802.45   -1300919.8    3819961.3 
   16700        4.175    1867.2831    844175.06   -1403670.3    102737.37     -1300933    3809484.1 
   16800          4.2    1810.2191    852735.83     -1400530    99597.731   -1300932.2      3799007 
   16900        4.225    1753.6076    861529.48   -1397391.5     96482.98   -1300908.5    3788529.9 
   17000         4.25    1701.0851    869082.19   -1394493.4     93593.21   -1300900.2    3778052.7 
   17100        4.275    1681.1859    874199.63   -1393408.5    92498.361   -1300910.1    3767575.6 
   17200          4.3    1655.9276    878101.03   -1392017.1    91108.658   -1300908.4    3757098.5 
   17300        4.325    1638.0665     882789.2   -1391022.2    90125.943   -1300896.2    3746621.4 
   17400         4.35    1624.2427    888231.87   -1390217.6     89365.36   -1300852.2    3736144.2 
   17500        4.375    1616.4374    893273.36   -1389016.7    88935.919   -1300080.8    3725667.1 
   17600          4.4    1864.7641    898418.56   -1390436.5    102598.78   -1287837.7      3715190 
   17700        4.425    2024.3839    901080.72   -1390534.8    111381.02   -1279153.8    3704712.8 
   17800         4.45    2092.4791     902933.7     -1390937    115127.59   -1275809.4    3694235.7 
   17900        4.475    2282.9953    908386.88   -1391299.9    125609.74   -1265690.2    3683758.6 
   18000          4.5    2331.5754    914053.09   -1384065.1     128282.6   -1255782.5    3673281.5 
   18100        4.525    2342.4006    919508.64   -1379622.5     128878.2   -1250744.3    3662804.3 
   18200         4.55    2270.2212    925425.38   -1372513.6    124906.91   -1247606.7    3652327.2 
   18300        4.575     2383.286    935096.27   -1365126.3    131127.71   -1233998.6    3641850.1 
   18400          4.6    2321.2732    945322.94   -1357247.7    127715.78   -1229531.9    3631372.9 
   18500        4.625     2329.129     958772.9   -1348105.9       128148   -1219957.9    3620895.8 
   18600         4.65    2469.9915    973715.22   -1339323.8    135898.21   -1203425.6    3610418.7 
   18700        4.675      2501.63    991554.21   -1328118.8    137638.96   -1190479.9    3599941.6 
   18800          4.7    2541.5098      1012468     -1316541    139833.13   -1176707.9    3589464.4 
   18900        4.725    2560.2188    1031370.7   -1303989.5     140862.5     -1163127    3578987.3 
   19000         4.75    2565.6394    1053006.9   -1291663.1    141160.73   -1150502.4    3568510.2 
   19100        4.775    2550.3824    1076314.3   -1278335.7     140321.3   -1138014.4      3558033 
   19200          4.8    2602.4633    1100608.8     -1265328    143186.77   -1122141.3    3547555.9 
   19300        4.825    2676.4223    1125204.2   -1251785.1    147255.98   -1104529.2    3537078.8 
   19400         4.85    2728.1968    1150385.8     -1238440    150104.59   -1088335.4    3526601.6 
   19500        4.875    2829.1594    1176228.3   -1224741.9    155659.53   -1069082.4    3516124.5 
   19600          4.9    2957.1114    1203184.4   -1210851.7    162699.41   -1048152.3    3505647.4 
   19700        4.925    3068.3358    1230185.2   -1197060.6    168818.94   -1028241.7    3495170.3 
   19800         4.95    3158.2073    1256905.8   -1183298.5    173763.65   -1009534.8    3484693.1 
   19900        4.975    3263.0047      1284176   -1169567.3    179529.57   -990037.72      3474216 
   20000            5    3391.1146    1311561.2   -1156255.7    186578.14   -969677.51    3463738.9 
   20100        5.025     3505.722    1338427.1   -1142438.5    192883.81   -949554.69    3453261.7 
   20200         5.05    3621.5652    1365778.2   -1129014.6    199257.47    -929757.1    3442784.6 
   20300        5.075    3753.1159      1393211   -1115896.1    206495.35   -909400.72    3432307.5 
   20400          5.1    3912.5349      1417566   -1104041.7    215266.53    -888775.2    3421830.4 
   20500        5.125     4088.325    1438595.5   -1093355.2    224938.45    -868416.7    3411353.2 
   20600         5.15    4250.5951    1457533.6     -1082143    233866.51   -848276.48    3400876.1 
   20700        5.175    4504.6412    1473598.7   -1075789.6    247844.05   -827945.53      3390399 
   20800          5.2    4782.6613    1484524.7   -1070966.8    263140.64   -807826.15    3379921.8 
   20900        5.225    5012.4624    1494658.8   -1063837.4    275784.23    -788053.2    3369444.7 
   21000         5.25      5302.88    1504608.5   -1060241.1    291762.92   -768478.17    3358967.6 
   21100        5.275    5566.9321    1516277.4   -1055095.1    306290.99   -748804.11    3348490.5 
   21200          5.3    5805.7136    1529829.2   -1048887.5    319428.68    -729458.8    3338013.3 
   21300        5.325    6029.7299    1545035.3   -1041932.5    331753.99   -710178.52    3327536.2 
   21400         5.35    6205.3111    1563683.1   -1032501.5    341414.42   -691087.07    3317059.1 
   21500        5.375    6375.0016    1582406.2   -1023451.8    350750.74   -672701.03    3306581.9 
   21600          5.4    6480.7863    1600699.6   -1011679.1    356570.98   -655108.12    3296104.8 
   21700        5.425    6575.9027    1622779.2   -1000289.2    361804.26   -638484.97    3285627.7 
   21800         5.45    6619.4248    1647264.2   -987029.19    364198.83   -622830.35    3275150.5 
   21900        5.475    6639.3252    1671940.8    -973343.7    365293.74   -608049.95    3264673.4 
   22000          5.5    6643.4466    1696403.4   -959141.96     365520.5   -593621.45    3254196.3 
   22100        5.525    6653.1155    1721672.6   -945074.31    366052.48   -579021.82    3243719.2 
   22200         5.55    6657.8825    1748501.1   -930716.83    366314.77   -564402.06      3233242 
   22300        5.575     6657.286    1775841.6   -916081.18    366281.94   -549799.23    3222764.9 
   22400          5.6    6658.0057      1803764   -901094.09    366321.54   -534772.55    3212287.8 
   22500        5.625    6643.8104    1832191.1    -885897.8    365540.52   -520357.28    3201810.6 
   22600         5.65    6616.0349    1861571.8   -870524.31    364012.32   -506511.99    3191333.5 
   22700        5.675    6573.1295      1890458   -854884.81    361651.68   -493233.13    3180856.4 
   22800          5.7    6522.7646    1918818.8   -839357.89    358880.62   -480477.27    3170379.3 
   22900        5.725    6495.7182    1945861.3   -825105.03    357392.53    -467712.5    3159902.1 
   23000         5.75    6492.2552    1969779.5   -811832.47       357202   -454630.48      3149425 
   23100        5.775    6525.8754    1991361.9   -799959.72    359051.77   -440907.94    3138947.9 
   23200          5.8    6596.3593    2011429.3   -789429.54    362929.78   -426499.76    3128470.7 
   23300        5.825    6726.9606    2029223.5    -781737.4    370115.42   -411621.98    3117993.6 
   23400         5.85    6887.3886    2042761.4   -776282.58    378942.12   -397340.46    3107516.5 
   23500        5.875    7050.9797    2053665.3   -771450.87    387942.86   -383508.01    3097039.4 
   23600          5.9    7224.9768    2063914.3   -767565.06    397516.13   -370048.93    3086562.2 
   23700        5.925    7407.1058    2074048.7   -764356.65    407536.81   -356819.84    3076085.1 
   23800         5.95    7576.4351      2087276   -760201.98    416853.26   -343348.72      3065608 
   23900        5.975    7755.5292    2104181.9   -755196.37    426706.96   -328489.41    3055130.8 
   24000            6    7905.8306    2123165.6   -749767.24    434976.51   -314790.73    3044653.7 
   24100        6.025    8041.0807    2143518.3   -743803.85    442417.93   -301385.93    3034176.6 
   24200         6.05    8171.5773    2165087.4   -736898.73    449597.81   -287300.92    3023699.5 
   24300        6.075    8296.5124    2188929.8   -728663.64    456471.71   -272191.93    3013222.3 
   24400          6.1    8418.4154    2215336.3   -719280.83    463178.77   -256102.06    3002745.2 
   24500        6.125    8560.5043    2244189.3   -709156.37    470996.46    -238159.9    2992268.1 
   24600         6.15    8702.9745    2275154.3   -697968.04    478835.13   -219132.91    2981790.9 
   24700        6.175    8830.3735      2307573   -685191.38    485844.59   -199346.79    2971313.8 
   24800          6.2    8935.2539    2341746.2   -671152.66    491615.08   -179537.59    2960836.7 
   24900        6.225    9029.5622    2377225.6    -656195.3    496803.89    -159391.4    2950359.5 
   25000         6.25    9118.8646    2413743.6   -640299.67    501717.28   -138582.39    2939882.4 
   25100        6.275    9217.4175    2451856.5    -624405.1    507139.64   -117265.47    2929405.3 
   25200          6.3    9307.7081    2490267.9   -607646.34     512107.4   -95538.945    2918928.2 
   25300        6.325    9408.4025    2526721.7   -591518.74    517647.57   -73871.168      2908451 
   25400         6.35    9535.0685    2561292.8    -576400.5     524616.7     -51783.8    2897973.9 
   25500        6.375    9669.6965    2593021.3   -561724.11     532023.9   -29700.219    2887496.8 
   25600          6.4    9805.1928    2623296.2   -547111.59    539478.86   -7632.7268    2877019.6 
   25700        6.425     9947.041    2654026.6   -532809.03    547283.31    14474.285    2866542.5 
   25800         6.45    10056.887    2685184.4   -517101.82       553327     36225.18    2856065.4 
   25900        6.475    10119.453    2715922.8   -499354.05    556769.39    57415.347    2845588.3 
   26000          6.5    10200.258    2744284.9   -482804.45    561215.22    78410.773    2835111.1 
   26100        6.525    10239.471    2773658.5   -464541.27    563372.71     98831.44      2824634 
   26200         6.55    10237.242    2807703.4   -444331.34    563250.06    118918.73    2814156.9 
   26300        6.575     10247.16    2840406.7   -425300.91    563795.78    138494.87    2803679.7 
   26400          6.6    10235.437      2873816   -405106.21    563150.76    158044.55    2793202.6 
   26500        6.625     10217.28      2907626   -385159.17    562151.81    176992.64    2782725.5 
   26600         6.65    10183.275    2942327.2    -364667.5    560280.81    195613.31    2772248.4 
   26700        6.675    10148.648    2979444.9   -344690.16    558375.66     213685.5    2761771.2 
   26800          6.7    10113.702    3018067.2   -324985.96    556452.96       231467    2751294.1 
   26900        6.725    10045.754    3056474.9   -303567.68    552714.47    249146.79      2740817 
   27000         6.75     9976.961    3096176.7   -283395.38     548929.5    265534.13    2730339.8 
   27100        6.775    9862.4638      3137212   -261441.29     542629.9    281188.61    2719862.7 
   27200          6.8    9749.2999    3177602.2   -240376.08    536403.65    296027.58    2709385.6 
   27300        6.825    9628.7732    3217892.9   -219020.73    529772.31    310751.59    2698908.5 
   27400         6.85    9488.1368    3257299.9   -197720.87    522034.54    324313.67    2688431.3 
   27500        6.875    9374.2794    3295219.4   -178253.06    515770.13    337517.08    2677954.2 
   27600          6.9    9260.0561    3330939.2   -159397.96     509485.6    350087.64    2667477.1 
   27700        6.925     9152.896    3364635.9   -140951.42    503589.68    362638.26    2656999.9 
   27800         6.95    9061.8506    3397882.6   -123461.94    498580.39    375118.45    2646522.8 
   27900        6.975    8941.3686    3432924.5   -104167.34    491951.51    387784.16    2636045.7 
   28000            7    8794.0996    3470893.3   -83942.799    483848.81    399906.01    2625568.5 
   28100        7.025    8612.3683    3510331.6   -61712.563    473850.01    412137.44    2615091.4 
   28200         7.05    8428.1251    3549278.9   -39415.279       463713    424297.72    2604614.3 
   28300        7.075    8239.3345      3589862   -16737.651    453325.79    436588.14    2594137.2 
   28400          7.1    8050.1584    3632373.8    6023.8213    442917.38     448941.2      2583660 
   28500        7.125    7840.5189    3677132.6    29223.531    431383.07     460606.6    2573182.9 
   28600         7.15    7635.0333    3722913.4    52027.659    420077.32    472104.98    2562705.8 
   28700        7.175    7438.4944    3769606.5    74481.726    409263.81    483745.53    2552228.6 
   28800          7.2    7258.4489    3819002.1    96580.706    399357.75    495938.46    2541751.5 
   28900        7.225    7083.5913    3867496.5    118045.41    389737.14    507782.55    2531274.4 
   29000         7.25    6917.8009    3914584.5    139294.21     380615.4    519909.61    2520797.3 
   29100        7.275    6793.1026    3960833.2    158768.81    373754.54    532523.35    2510320.1 
   29200          7.3    6688.4703    4005956.9    178156.24    367997.69    546153.93      2499843 
   29300        7.325     6629.187    4050423.4    195456.87    364735.95    560192.82    2489365.9 
   29400         7.35    6594.9942      4093499    212319.06    362854.67    575173.73    2478888.7 
   29500        7.375    6587.3572    4136383.9    228448.81    362434.48     590883.3    2468411.6 
   29600          7.4    6599.0831    4180419.7    244493.48    363079.64    607573.11    2457934.5 
   29700        7.425    6620.9815    4226637.1    260077.11    364284.48    624361.59    2447457.4 
   29800         7.45     6636.773    4275625.2    276589.04    365153.32    641742.36    2436980.2 
   29900        7.475    6672.6784    4327153.5    292427.74    367128.83    659556.57    2426503.1 
   30000          7.5    6671.0585    4382654.4    311140.43    367039.71    678180.13      2416026 
   30100        7.525    6668.5359    4439715.6    329934.65    366900.91    696835.56    2405548.8 
   30200         7.55    6641.6337    4501805.1    350298.33    365420.76    715719.09    2395071.7 
   30300        7.575    6561.9181    4565031.1    373989.27    361034.83    735024.09    2384594.6 
   30400          7.6    6483.4945    4630162.2    398344.75    356719.99    755064.73    2374117.4 
   30500        7.625    6423.7639    4696007.6    423138.05    353433.63    776571.67    2363640.3 
   30600         7.65    6424.2654    4764177.5    447623.31    353461.22    801084.53    2353163.2 
   30700        7.675    6460.9894    4834341.2     473813.5    355481.76    829295.26    2342686.1 
   30800          7.7    6559.5013    4906204.5    501442.55    360901.86    862344.41    2332208.9 
   30900        7.725    6674.3216    4981984.2    531519.82    367219.24    898739.05    2321731.8 
   31000         7.75    6810.5839    5061932.6    562215.24    374716.35    936931.59    2311254.7 
   31100        7.775    6971.0485    5146319.8    595314.51    383545.07    978859.58    2300777.5 
   31200          7.8    7219.1638    5238545.1    628780.03     397196.3    1025976.3    2290300.4 
   31300        7.825    7465.5265    5335097.1       663364     410751.1    1074115.1    2279823.3 
   31400         7.85    7718.8643    5435536.8    698015.51    424689.67    1122705.2    2269346.2 
   31500        7.875    7991.2923    5539918.7    734083.95    439678.58    1173762.5      2258869 
   31600          7.9    8279.5899    5649109.8    770818.38    455540.64      1226359    2248391.9 
   31700        7.925    8616.3234      5760288    807116.46    474067.62    1281184.1    2237914.8 
   31800         7.95    8923.5182    5873031.9    845394.29    490969.38    1336363.7    2227437.6 
   31900        7.975    9259.5892      5985502     883508.3    509459.91    1392968.2    2216960.5 
   32000            8    9611.1861    6098196.3    920738.65    528804.67    1449543.3    2206483.4 
   32100        8.025    9950.2568    6210036.5    958621.74    547460.24      1506082    2196006.3 
   32200         8.05    10254.751      6325011    998875.85    564213.43    1563089.3    2185529.1 
   32300        8.075    10486.925    6444233.2    1042521.4    576987.56      1619509      2175052 
   32400          8.1     10674.25    6569328.9    1087266.5    587294.12    1674560.6    2164574.9 
   32500        8.125    10825.693    6700866.9    1133760.2    595626.46    1729386.6    2154097.7 
   32600         8.15    10931.689    6835247.4    1181968.9    601458.36    1783427.3    2143620.6 
   32700        8.175    11061.879    6971523.8    1229807.1    608621.39    1838428.5    2133143.5 
   32800          8.2    11168.144    7110074.1    1278090.3    614468.05    1892558.3    2122666.4 
   32900        8.225    11348.927    7248139.3    1323114.4    624414.65      1947529    2112189.2 
   33000         8.25    11511.088    7382438.6    1368628.5     633336.7    2001965.2    2101712.1 
   33100        8.275    11768.056    7515258.5    1410177.5    647475.05    2057652.5      2091235 
   33200          8.3    12069.507    7644517.6    1449166.6    664060.76    2113227.4    2080757.8 
   33300        8.325    12372.851    7770634.7    1487317.5    680750.69    2168068.2    2070280.7 
   33400         8.35     12702.24    7895421.9    1524929.3    698873.58    2223802.8    2059803.6 
   33500        8.375    13066.312    8029962.6    1561641.4    718904.71    2280546.1    2049326.4 
   33600          8.4     13415.64    8166862.5    1599533.2    738124.63    2337657.9    2038849.3 
   33700        8.425    13789.102    8309469.2    1639706.5    758672.38    2398378.9    2028372.2 
   33800         8.45    14208.228    8456571.6    1679810.9     781732.6    2461543.5    2017895.1 
   33900        8.475    14632.267    8610799.3    1722378.3    805063.09    2527441.4    2007417.9 
   34000          8.5    15006.237    8768716.5    1768714.6    825638.78    2594353.4    1996940.8 
   34100        8.525    15374.252      8927056    1815627.1    845886.89      2661514    1986463.7 
   34200         8.55    15645.684    9094372.5    1868697.8       860821    2729518.9    1975986.5 
   34300        8.575    15806.738    9266214.4    1926358.9    869682.15      2796041    1965509.4 
   34400          8.6    15883.363    9444471.1      1988851    873898.01      2862749    1955032.3 
   34500        8.625    15908.679    9629119.7    2053947.9    875290.88    2929238.8    1944555.2 
   34600         8.65    15870.814    9820835.9    2120907.1     873207.6    2994114.7      1934078 
   34700        8.675    15835.987     10014198    2187944.6     871291.4      3059236    1923600.9 
   34800          8.7    15755.662     10210094    2256185.6    866871.93    3123057.5    1913123.8 
   34900        8.725    15691.798     10407891    2322504.2    863358.17    3185862.3    1902646.6 
   35000         8.75    15583.576     10606384    2389438.5    857403.85    3246842.4    1892169.5 
   35100        8.775    15419.735     10806449    2458138.6    848389.34    3306527.9    1881692.4 
   35200          8.8    15191.173     11004953      2529199    835813.95    3365012.9    1871215.3 
   35300        8.825    14823.922     11212145      2606359    815607.91    3421966.9    1860738.1 
   35400         8.85    14315.568     11429851    2689043.7    787638.39    3476682.1      1850261 
   35500        8.875    13799.684     11652154    2772263.5    759254.58    3531518.1    1839783.9 
   35600          8.9      13253.1     11872772    2856610.2     729181.7    3585791.9    1829306.7 
   35700        8.925    12764.777     12094377    2936606.9    702314.34    3638921.3    1818829.6 
   35800         8.95    12355.094     12312173    3013818.9    679773.71    3693592.6    1808352.5 
   35900        8.975    12039.306     12528936    3086600.6    662399.12    3748999.7    1797875.3 
   36000            9    11799.876     12741001    3155087.2    649225.75      3804313    1787398.2 
   36100        9.025    11596.893     12958952      3223355    638057.68    3861412.7    1776921.1 
   36200         9.05    11420.952     13185540    3291285.1    628377.48    3919662.5      1766444 
   36300        9.075    11141.165     13414494    3364857.4    612983.67    3977841.1    1755966.8 
   36400          9.1    10930.221     13648369    3437628.2    601377.56    4039005.7    1745489.7 
   36500        9.125    10839.139     13885142    3510838.3    596366.26    4107204.5    1735012.6 
   36600         9.15    10900.582     14139897    3586941.3    599746.83    4186688.2    1724535.4 
   36700        9.175    11084.543     14410885    3669926.8    609868.34    4279795.2    1714058.3 
   36800          9.2    11203.505     14698141    3764778.3     616413.6    4381191.9    1703581.2 
   36900        9.225     11427.66     14997311    3864217.5    628746.54    4492964.1    1693104.1 
   37000         9.25    11709.517     15315055    3972857.8    644254.22      4617112    1682626.9 
   37100        9.275    12130.564     15644308    4077541.6    667420.11    4744961.7    1672149.8 
   37200          9.3    12526.998     15976104    4186675.5    689231.78    4875907.3    1661672.7 
   37300        9.325    13067.996     16312989      4292277    718997.38    5011274.4    1651195.5 
   37400         9.35    13594.033     16656299    4397652.3    747939.75      5145592    1640718.4 
   37500        9.375    13967.914     17006371    4510347.7    768510.59    5278858.3    1630241.3 
   37600          9.4    14222.492     17368680    4631014.1    782517.36    5413531.5    1619764.2 
   37700        9.425    14375.336     17740125      4757800    790926.84    5548726.9      1609287 
   37800         9.45    14588.704     18115816    4882952.8    802666.25    5685619.1    1598809.9 
   37900        9.475    14884.433     18490839    5005468.7    818937.19    5824405.9    1588332.8 
   38000          9.5    15348.728     18867911    5119244.4    844482.58      5963727    1577855.6 
   38100        9.525    15937.487     19245593    5225618.7     876875.9    6102494.6    1567378.5 
   38200         9.55    16527.654     19627911      5331358    909346.71    6240704.7    1556901.4 
   38300        9.575    17048.149     20019834    5441059.5    937984.19    6379043.7    1546424.3 
   38400          9.6    17527.222     20421611    5556573.8    964342.66    6520916.4    1535947.1 
   38500        9.625    18133.657     20835520    5672556.9    997708.54    6670265.4      1525470 
   38600         9.65    18828.205     21254946    5787493.1    1035922.4    6823415.5    1514992.9 
   38700        9.675    19255.733     21685816      5915595    1059444.8    6975039.8    1504515.7 
   38800          9.7    19440.958     22136674      6056142    1069635.8    7125777.8    1494038.6 
   38900        9.725    19469.453     22597466    6205772.2    1071203.6    7276975.8    1483561.5 
   39000         9.75    19316.525     23069266    6361757.1    1062789.6    7424546.7    1473084.3 
   39100        9.775    19067.646     23539228    6520695.4    1049096.3    7569791.7    1462607.2 
   39200          9.8     18890.22     24021549    6673321.2    1039334.4    7712655.6    1452130.1 
   39300        9.825    18605.054     24508834    6828977.1    1023644.7    7852621.8      1441653 
   39400         9.85    17996.942     25002882    6999614.8    990186.52    7989801.3    1431175.8 
   39500        9.875    17259.324     25499780    7176113.9    949603.02    8125716.9    1420698.7 
   39600          9.9    16533.842     26014308    7351085.2    909687.21    8260772.4    1410221.6 
   39700        9.925    15984.585     26531847    7516699.2    879467.21    8396166.4    1399744.4 
   39800         9.95    15646.877     27046519    7672736.5    860886.65    8533623.2    1389267.3 
   39900        9.975    15468.691     27570919    7822055.1    851082.91      8673138    1378790.2 
   40000           10    15195.712     28106324    7979995.4    836063.66      8816059    1368313.1 
   40100       10.025     14999.08     28673611    8144624.8    825245.02    8969869.8    1357835.9 
   40200        10.05    15174.042     29267501    8312341.3    834871.36    9147212.7    1347358.8 
   40300       10.075    15609.803     29899024    8489514.1    858846.81    9348360.9    1336881.7 
   40400         10.1      15822.9     30527352    8682598.8    870571.39    9553170.2    1326404.5 
   40500       10.125    16176.421     31199778    8887175.6    890021.99    9777197.6    1315927.4 
   40600        10.15     16620.06     31901174    9103788.6    914430.86     10018220    1305450.3 
   40700       10.175    17171.178     32617533    9318241.1    944753.23     10262994    1294973.2 
   40800         10.2    17850.105     33337529    9532937.1    982107.59     10515045      1284496 
   40900       10.225    18321.194     34062790    9759770.4    1008026.8     10767797    1274018.9 
   41000        10.25    18684.527     34835371    9996925.2    1028017.3     11024942    1263541.8 
   41100       10.275    19215.717     35621622     10228427    1057243.2     11285670    1253064.6 
   41200         10.3    20014.562     36407021     10447518    1101195.4     11548713    1242587.5 
   41300       10.325    21003.118     37175541     10657122    1155585.5     11812707    1232110.4 
   41400        10.35    21848.191     37983292     10871246    1202081.2     12073327    1221633.3 
   41500       10.375    22508.289     38832826     11098654    1238399.5     12337053    1211156.1 
   41600         10.4    23165.423     39691492     11333272    1274554.9     12607827      1200679 
   41700       10.425     23613.12     40555158     11583671      1299187     12882858    1190201.9 
   41800        10.45    23677.725     41423214     11849024    1302741.5     13151766    1179724.7 
   41900       10.475    23446.878     42347404     12129316    1290040.4     13419356    1169247.6 
   42000         10.5     23037.92     43291200     12419926    1267539.7     13687466    1158770.5 
   42100       10.525    22586.698     44210967     12707891    1242713.6     13950605    1148293.3 
   42200        10.55    21948.991     45144610     13006506    1207627.1     14214133    1137816.2 
   42300       10.575    21070.442     46112325     13311997    1159289.6     14471286    1127339.1 
   42400         10.6    20456.576     47094881     13604367    1125514.9     14729882      1116862 
   42500       10.625    20067.204     48068883     13887785    1104091.7     14991876    1106384.8 
   42600        10.65    20034.384     49097987     14168433      1102286     15270719    1095907.7 
   42700       10.675    20182.909     50199266     14465462    1110457.8     15575919    1085430.6 
   42800         10.7    20596.257     51328736     14781205    1133200.1     15914405    1074953.4 
   42900       10.725     20923.54     52453919     15117338    1151207.1     16268545    1064476.3 
   43000        10.75    21401.934     53591144     15466537    1177528.2     16644066    1053999.2 
   43100       10.775    21950.427     54768640     15829615    1207706.1     17037321    1043522.1 
   43200         10.8    22556.257     55981255     16199261    1241038.7     17440300    1033044.9 
   43300       10.825    23261.928     57218289     16575395    1279864.5     17855259    1022567.8 
   43400        10.85    24008.858     58471534     16953860    1320960.4     18274821    1012090.7 
   43500       10.875    24967.782     59800850     17323539    1373720.1     18697259    1001613.5 
   43600         10.9    26194.511     61144014     17681777    1441214.4     19122991    991136.41 
   43700       10.925    27235.043     62502042     18048545    1498464.2     19547010    980659.28 
   43800        10.95    27908.944     63904106     18438026      1535542     19973568    970182.15 
   43900       10.975    28306.731     65328293     18848601    1557428.1     20406029    959705.02 
   44000           11    28352.433     66818504     19276723    1559942.7     20836666    949227.89 
   44100       11.025    27979.499     68322913     19723446    1539423.9     21262870    938750.77 
   44200        11.05    27469.136     69885788     20180442    1511343.9     21691785    928273.64 
   44300       11.075    26763.605     71493091     20647249    1472525.8     22119775    917796.51 
   44400         11.1     26111.65     73129968     21111130    1436655.4     22547785    907319.38 
   44500       11.125    25895.672     74802043     21558944    1424772.3     22983716    896842.25 
   44600        11.15    26201.667     76548130     22003845    1441608.1     23445454    886365.12 
   44700       11.175     26674.38     78374874     22482794    1467616.7     23950411    875887.99 
   44800         11.2    27269.223     80330473     22985045    1500344.7     24485389    865410.86 
   44900       11.225    27886.162     82379574     23516521    1534288.6     25050810    854933.73 
   45000        11.25    28567.635     84511723     24069389      1571783     25641172     844456.6 
   45100       11.275    29482.513     86768120     24631441    1622119.3     26253560    833979.47 
   45200         11.3    30645.391     89091559     25196847    1686100.5     26882948    823502.35 
   45300       11.325    32219.225     91437616     25742160    1772692.4     27514853    813025.22 
   45400        11.35    33653.099     93871525     26296321    1851583.7     28147905    802548.09 
   45500       11.375    34425.979     96378794     26886008    1894107.4     28780116    792070.96 
   45600         11.4    34623.195     99018218     27516781    1904958.1     29421739    781593.83 
   45700       11.425    34353.545 1.0172852e+08     28172469    1890122.1     30062591     771116.7 
   45800        11.45     33789.19 1.0453222e+08     28845876    1859071.4     30704948    760639.57 
   45900       11.475    33237.195 1.0743443e+08     29525602    1828700.8     31354303    750162.44 
   46000         11.5    33269.756 1.1041791e+08     30193644    1830492.3     32024136    739685.31 
   46100       11.525    34036.654 1.1356411e+08     30870847    1872686.8     32743534    729208.18 
   46200        11.55    34781.337 1.169259e+08     31594720    1913659.1     33508379    718731.05 
   46300       11.575    35207.168 1.2046048e+08     32369238    1937088.2     34306327    708253.93 
   46400         11.6      36146.2 1.2420542e+08     33168377    1988753.4     35157130     697776.8 
   46500       11.625    37476.385 1.2815892e+08     33977063    2061939.8     36039003    687299.67 
   46600        11.65    39293.249 1.3223941e+08     34780585    2161903.2     36942489    676822.54 
   46700       11.675    40786.705 1.3644375e+08     35600993    2244072.7     37845065    666345.41 
   46800         11.7    41399.733 1.4083748e+08     36476257    2277801.3     38754058    655868.28 
   46900       11.725    41112.958 1.4548864e+08     37409776      2262023     39671799    645391.15 
   47000        11.75    40654.503 1.5030985e+08     38365881      2236799     40602680    634914.02 
   47100       11.775    40523.745 1.5533276e+08     39328123    2229604.7     41557728    624436.89 
   47200         11.8    41642.563 1.6062766e+08     40289761    2291161.8     42580923    613959.76 
   47300       11.825    42440.598 1.6632173e+08     41323600    2335069.4     43658669    603482.63 
   47400        11.85    43089.796 1.7231726e+08     42424054    2370788.1     44794842    593005.51 
   47500       11.875    44468.603 1.7873317e+08     43548512    2446649.6     45995162    582528.38 
   47600         11.9    46363.363 1.8549462e+08     44690077    2550898.8     47240975    572051.25 
   47700       11.925    47828.699 1.925004e+08     45860621    2631521.2     48492142    561574.12 
   47800        11.95    48104.169 1.9992008e+08     47117329    2646677.4     49764007    551096.99 
   47900       11.975    47930.479 2.0780017e+08     48424772    2637121.1     51061893    540619.86 
   48000           12     48446.39 2.1601126e+08     49750816    2665506.3     52416323    530142.73 
   48100       12.025    50049.976 2.2480783e+08     51121993    2753735.2     53875728     519665.6 
   48200        12.05    50919.313 2.3421073e+08     52582939    2801565.8     55384505    509188.47 
   48300       12.075    52317.957 2.4436283e+08     54117124    2878518.8     56995643    498711.34 
   48400         12.1    54664.372 2.5502089e+08     55664466    3007617.9     58672084    488234.22 
   48500       12.125    55868.606 2.6633327e+08     57299741    3073874.5     60373616    477757.09 
   48600        12.15    55963.034 2.7839364e+08     59043301    3079069.9     62122371    467279.96 
   48700       12.175    57166.777 2.9131289e+08     60833945    3145299.5     63979244    456802.83 
   48800         12.2    59103.413 3.0524727e+08     62701963    3251852.6     65953815     446325.7 
   48900       12.225    60099.794 3.2022564e+08     64702392    3306673.2     68009065    435848.57 
   49000        12.25    62429.146 3.3634072e+08     66759685    3434833.5     70194519    425371.44 
   49100       12.275    63867.172 3.5362912e+08     68932602    3513953.3     72446555    414894.31 
   49200         12.3      64567.9 3.7223438e+08     71249809    3552507.1     74802316    404417.18 
   49300       12.325    67317.982 3.9239655e+08     73634393    3703815.8     77338209    393940.05 
   49400        12.35     68624.78 4.1428991e+08     76205787    3775715.5     79981502    383462.92 
   49500       12.375    70665.139 4.3805037e+08     78898837    3887975.5     82786812     372985.8 
   49600         12.4    72649.616 4.6370963e+08     81734248    3997160.8     85731409    362508.67 
   49700       12.425    74411.866 4.9180803e+08     84767576    4094119.3     88861695    352031.54 
   49800        12.45    77809.714 5.2285871e+08     87958470    4281067.9     92239538    341554.41 
   49900       12.475     79611.58 5.5642201e+08     91368536      4380206     95748742    331077.28 
   50000         12.5    81777.103 5.9352177e+08     95004363    4499352.5     99503715    320600.15 
Loop time of 678.15 on 24 procs for 50000 steps with 425652 atoms

Performance: 1.593 ns/day, 15.070 hours/ns, 73.730 timesteps/s
99.7% CPU use with 24 MPI tasks x 1 OpenMP threads

MPI task timing breakdown:
Section |  min time  |  avg time  |  max time  |%varavg| %total
---------------------------------------------------------------
Pair    | 358.73     | 379.06     | 404.77     |  60.4 | 55.90
Neigh   | 0.23583    | 0.26758    | 0.29461    |   2.6 |  0.04
Comm    | 67.638     | 69.834     | 71.578     |  15.8 | 10.30
Output  | 13.975     | 13.98      | 14.07      |   0.5 |  2.06
Modify  | 170        | 193.75     | 212.45     |  78.9 | 28.57
Other   |            | 21.26      |            |       |  3.13

Nlocal:        17735.5 ave       18024 max       17565 min
Histogram: 3 4 4 6 2 0 1 3 0 1
Nghost:        114030.0 ave      114341 max      113683 min
Histogram: 2 2 3 2 3 2 1 3 3 3
Neighs:         0.00000 ave           0 max           0 min
Histogram: 24 0 0 0 0 0 0 0 0 0

Total # of neighbors = 0
Ave neighs/atom = 0.0000000
Neighbor list builds = 1228
Dangerous builds = 0


---------------------------------------------------------------------
      Device Time Info (average): 
---------------------------------------------------------------------
Data Transfer:   40.9017 s.
Neighbor copy:   0.0739 s.
Neighbor build:  26.1268 s.
Force calc:      221.3923 s.
Device Overhead: 66.1600 s.
Average split:   1.0000.
Lanes / atom:    4.
Vector width:    32.
Max Mem / Proc:  426.23 MB.
CPU Neighbor:    1.4366 s.
CPU Cast/Pack:   25.3062 s.
CPU Driver_Time: 1.0017 s.
CPU Idle_Time:   116.8287 s.
---------------------------------------------------------------------

Total wall time: 0:11:27
