LAMMPS (29 Sep 2021)
  using 1 OpenMP thread(s) per MPI task
Reading restart file ...
  restart file = 29 Sep 2021, LAMMPS = 29 Sep 2021
  restoring atom style atomic from restart
  orthogonal box = (-0.31764081 -0.29254727 0.0000000) to (101.39031 101.36522 591.51300)
  3 by 2 by 16 MPI processor grid
  pair style hybrid/overlay stores no restart info
  439844 atoms
  read_restart CPU = 0.218 seconds
Resetting global fix info from restart file:
  fix style: npt, fix ID: 2

CITE-CITE-CITE-CITE-CITE-CITE-CITE-CITE-CITE-CITE-CITE-CITE-CITE

Your simulation uses code contributions which should be cited:
- @article{cjiang2012
The log file lists these citations in BibTeX format.

CITE-CITE-CITE-CITE-CITE-CITE-CITE-CITE-CITE-CITE-CITE-CITE-CITE

All restart file global fix info was re-assigned
Unused restart file peratom fix info:
  fix style: STORE, fix ID: spatialbins_COMPUTE_STORE
Neighbor list info ...
  update every 1 steps, delay 10 steps, check yes
  max neighbors/atom: 2000, page size: 100000
  master list distance cutoff = 8.28721
  ghost atom cutoff = 8.28721
  binsize = 4.143605, bins = 25 25 143
  3 neighbor lists, perpetual/occasional/extra = 3 0 0
  (1) pair eam/alloy, perpetual, skip from (3)
      attributes: half, newton on
      pair build: skip
      stencil: none
      bin: none
  (2) pair edip/multi, perpetual
      attributes: full, newton on
      pair build: full/bin/atomonly
      stencil: full/bin/3d
      bin: standard
  (3) neighbor class addition, perpetual, half/full from (2)
      attributes: half, newton on
      pair build: halffull/newton
      stencil: none
      bin: none
Setting up Verlet run ...
  Unit style    : metal
  Current step  : 11000117
  Time step     : 0.0001
Per MPI rank memory allocation (min/avg/max) = 5.175 | 11.69 | 17.24 Mbytes
Step Time Temp PotEng E_pair TotEng Press Volume Lx Ly Lz CPULeft 
11000117            0    299.89378     -1895584     -1895584   -1878533.7    236.50683    6115891.1    101.70795    101.65776      591.513            0 
11010000       0.9883     299.9989     -1895596     -1895596   -1878539.8    132.64813    6116963.8    101.71553    101.66802      591.513    33867.516 
11020000       1.9883    299.96368   -1895567.6   -1895567.6   -1878513.4    21.525712    6117076.4     101.7135    101.67191      591.513    33599.497 
11030000       2.9883     299.7841   -1895571.1   -1895571.1   -1878527.1   -372.28271      6116335    101.71017    101.66292      591.513    33261.582 
11040000       3.9883    299.97505   -1895578.9   -1895578.9     -1878524    124.53999    6116500.6    101.71333    101.66252      591.513     32940.04 
11050000       4.9883    300.02015   -1895576.2   -1895576.2   -1878518.8   -269.90307      6116550    101.71207     101.6646      591.513    32608.368 
11060000       5.9883    299.91887   -1895571.7   -1895571.7   -1878520.1    518.71913    6116582.9    101.71589    101.66133      591.513    32270.948 
11070000       6.9883    299.91072   -1895574.5   -1895574.5   -1878523.3   -218.75252    6116790.7    101.71299    101.66767      591.513     31933.93 
11080000       7.9883    299.85532   -1895544.6   -1895544.6   -1878496.6   -18.781704    6115801.6    101.71113     101.6531      591.513    31591.108 
11090000       8.9883    299.86349   -1895553.2   -1895553.2   -1878504.7   -149.10034    6116578.2    101.71958    101.65756      591.513    31246.738 
11100000       9.9883    299.86558   -1895557.7   -1895557.7   -1878509.1    129.41936    6116705.7     101.7174    101.66185      591.513    30905.635 
11110000      10.9883     299.8005   -1895563.7   -1895563.7   -1878518.8   -208.40696    6116525.1    101.71784    101.65842      591.513    30562.026 
11120000      11.9883    300.17125   -1895549.7   -1895549.7   -1878483.7    128.02326    6115565.5    101.70254    101.65776      591.513    30216.006 
11130000      12.9883    300.03465   -1895552.8   -1895552.8   -1878494.6    320.51934    6115790.2    101.70724     101.6568      591.513    29870.533 
11140000      13.9883    299.95862   -1895567.2   -1895567.2   -1878513.3   -393.29545    6115998.8    101.71044    101.65707      591.513    29528.382 
11150000      14.9883    300.26275   -1895540.8   -1895540.8   -1878469.6    265.52966    6116814.4    101.72192    101.65915      591.513    29185.428 
11160000      15.9883    299.72338   -1895578.2   -1895578.2   -1878537.7   -136.91757    6116373.7    101.71599    101.65775      591.513    28842.163 
11170000      16.9883    299.98324   -1895584.4   -1895584.4   -1878529.1   -36.955374    6116189.9    101.71283    101.65785      591.513    28499.607 
11180000      17.9883    300.21433   -1895563.1   -1895563.1   -1878494.6    266.22912    6117007.6    101.71946    101.66482      591.513    28156.211 
11190000      18.9883    299.85219   -1895548.9   -1895548.9     -1878501    487.48059    6117016.4    101.71732     101.6671      591.513    27819.939 
11200000      19.9883    300.41699   -1895555.5   -1895555.5   -1878475.5   -11.379526    6116924.7    101.71369    101.66921      591.513    27477.766 
11210000      20.9883     300.2907   -1895582.6   -1895582.6   -1878509.8   -34.582555    6116681.5    101.71979    101.65906      591.513    27134.195 
11220000      21.9883    300.04555   -1895552.8   -1895552.8   -1878493.9   -173.85967    6117877.2    101.71682     101.6819      591.513     26791.82 
11230000      22.9883    299.78101   -1895600.1   -1895600.1   -1878556.3   -105.67955    6117026.2    101.71778     101.6668      591.513    26450.508 
11240000      23.9883    299.88902   -1895574.1   -1895574.1   -1878524.1    221.24169    6116196.7    101.70972    101.66107      591.513    26108.848 
11250000      24.9883    300.26779   -1895589.1   -1895589.1   -1878517.6    328.39705      6116752    101.71418    101.66584      591.513     25765.85 
11260000      25.9883    300.21751   -1895555.3   -1895555.3   -1878486.6    37.120888      6116428    101.71556    101.65908      591.513    25422.155 
11270000      26.9883    300.00248   -1895587.7   -1895587.7   -1878531.4   -395.97932      6116477    101.71241    101.66304      591.513    25079.641 
11280000      27.9883    300.26461   -1895551.7   -1895551.7   -1878480.4    426.14833    6117075.9    101.72197    101.66345      591.513    24736.539 
11290000      28.9883    300.12621   -1895584.9   -1895584.9   -1878521.4   -535.83852    6117796.1    101.73137    101.66602      591.513    24392.663 
11300000      29.9883    300.05599   -1895567.8   -1895567.8   -1878508.4    177.74547    6116231.7    101.71228     101.6591      591.513    24049.963 
11310000      30.9883     300.3241   -1895601.3   -1895601.3   -1878526.6    252.48388    6115896.9    101.71005    101.65576      591.513    23707.178 
11320000      31.9883    299.89838   -1895593.9   -1895593.9   -1878543.4   -52.038874    6117058.8    101.72059    101.66454      591.513    23364.054 
11330000      32.9883    300.25057   -1895557.6   -1895557.6   -1878487.1    328.76235    6116063.3    101.71216    101.65642      591.513    23020.173 
11340000      33.9883    299.90379   -1895546.8   -1895546.8     -1878496    156.25648    6116236.1     101.7148    101.65666      591.513    22676.859 
11350000      34.9883    300.16354   -1895568.4   -1895568.4   -1878502.9   -129.28543    6116480.6    101.71677    101.65874      591.513    22332.746 
11360000      35.9883     300.1395   -1895597.8   -1895597.8   -1878533.6    186.11343    6115680.8    101.70715    101.65507      591.513    21989.158 
11370000      36.9883    299.95281   -1895570.5   -1895570.5   -1878516.9   -116.95508    6117270.6    101.71686    101.67179      591.513    21645.358 
11380000      37.9883    299.84852   -1895582.8   -1895582.8   -1878535.2    27.948485    6116508.7    101.71028     101.6657      591.513    21301.597 
11390000      38.9883    300.00448   -1895580.8   -1895580.8   -1878524.3   -22.304511      6116780    101.71155    101.66894      591.513    20958.358 
11400000      39.9883    299.66666   -1895571.3   -1895571.3     -1878534   -144.70882    6116141.2    101.71415    101.65572      591.513    20614.776 
11410000      40.9883    299.87376   -1895566.3   -1895566.3   -1878517.2   -440.33705    6116435.8    101.72234    101.65243      591.513    20270.685 
11420000      41.9883    299.70813   -1895561.5   -1895561.5   -1878521.9    263.31965    6115654.1    101.71374    101.64804      591.513    19927.459 
11430000      42.9883    299.96396   -1895579.2   -1895579.2     -1878525    70.056831    6115806.8    101.70416    101.66015      591.513    19584.077 
11440000      43.9883    300.02507   -1895595.9   -1895595.9   -1878538.2    554.84715    6116393.3    101.71251    101.66156      591.513    19240.752 
11450000      44.9883    300.00354   -1895562.4   -1895562.4     -1878506    161.62941    6116740.8    101.71094     101.6689      591.513    18897.301 
11460000      45.9883    299.97112   -1895568.5   -1895568.5   -1878513.8    211.60926    6116287.2    101.71165    101.66065      591.513    18554.517 
11470000      46.9883    299.91847   -1895552.9   -1895552.9   -1878501.3    116.27288    6116456.2    101.71146    101.66364      591.513    18211.202 
11480000      47.9883    300.06495   -1895556.7   -1895556.7   -1878496.7    -79.05229    6117129.8     101.7278    101.65852      591.513    17867.884 
11490000      48.9883    300.04144   -1895584.4   -1895584.4   -1878525.8   -513.16532    6116401.4    101.72311    101.65109      591.513    17524.744 
11500000      49.9883    299.95746   -1895577.6   -1895577.6   -1878523.7    101.08981    6117467.8     101.7184    101.67352      591.513    17181.811 
11510000      50.9883    299.69607   -1895582.1   -1895582.1   -1878543.1   -496.60724    6117391.2    101.72484    101.66582      591.513    16839.068 
11520000      51.9883     300.0311   -1895577.6   -1895577.6   -1878519.6    -380.9614    6117493.6    101.72586     101.6665      591.513    16495.878 
11530000      52.9883    299.75056   -1895580.9   -1895580.9   -1878538.8   -109.92647    6117348.3    101.72351    101.66643      591.513    16152.432 
11540000      53.9883    299.89561   -1895589.2   -1895589.2   -1878538.9   -115.80164      6117345    101.72152    101.66837      591.513    15808.905 
11550000      54.9883    300.08986   -1895566.9   -1895566.9   -1878505.6    158.96503    6116562.7    101.71641    101.66047      591.513     15465.66 
11560000      55.9883    300.29933   -1895568.5   -1895568.5   -1878495.2   -40.226519    6116281.8    101.71172    101.66049      591.513    15122.344 
11570000      56.9883    300.18902   -1895561.9   -1895561.9   -1878494.9   0.47700456    6115871.9    101.70554    101.65985      591.513    14778.906 
11580000      57.9883    300.03564   -1895580.6   -1895580.6   -1878522.3    38.178735    6116829.2    101.71728    101.66403      591.513    14435.271 
11590000      58.9883    300.01212   -1895600.9   -1895600.9   -1878543.9   -163.08187    6116634.8    101.71915    101.65893      591.513    14091.456 
11600000      59.9883     300.2988   -1895581.5   -1895581.5   -1878508.3    477.93801    6115871.8    101.70713    101.65827      591.513    13747.719 
11610000      60.9883    299.88019   -1895567.3   -1895567.3   -1878517.9    258.23425    6116554.3    101.71614     101.6606      591.513     13404.19 
11620000      61.9883    299.77526   -1895556.4   -1895556.4   -1878512.9   -229.51493    6116406.4    101.71662    101.65766      591.513    13060.282 
11630000      62.9883    299.79919   -1895551.3   -1895551.3   -1878506.4    1.8959493    6117249.7    101.72555    101.66276      591.513    12716.624 
11640000      63.9883    299.97556   -1895567.5   -1895567.5   -1878512.6   -573.07581    6115801.2    101.71224    101.65198      591.513    12372.804 
11650000      64.9883    299.83135   -1895571.7   -1895571.7   -1878525.1   -81.538262    6116475.4     101.7156    101.65982      591.513     12028.84 
11660000      65.9883    300.15197   -1895620.5   -1895620.5   -1878555.6   -585.30046    6116119.9    101.71372     101.6558      591.513    11685.033 
11670000      66.9883    299.94481   -1895587.3   -1895587.3   -1878534.2    129.05983    6116698.6    101.71662    101.66252      591.513    11341.414 
11680000      67.9883    299.81677   -1895571.7   -1895571.7   -1878525.8   -106.85348    6116003.5     101.7118    101.65578      591.513    10997.662 
11690000      68.9883    299.95892   -1895569.9   -1895569.9     -1878516   -121.93149    6115817.7    101.71387    101.65063      591.513    10653.877 
11700000      69.9883    300.20546     -1895547     -1895547   -1878479.1   -30.175937    6115416.2    101.70549    101.65233      591.513    10310.148 
11710000      70.9883    299.98887   -1895543.8   -1895543.8   -1878488.2    166.99608    6116533.8    101.71093    101.66547      591.513    9966.4766 
11720000      71.9883    300.09873   -1895590.8   -1895590.8   -1878528.9     144.3569    6115557.5    101.70556    101.65461      591.513    9622.8706 
11730000      72.9883     299.9797   -1895579.7   -1895579.7   -1878524.6    14.701715    6117211.6    101.71989    101.66778      591.513    9279.2408 
11740000      73.9883    299.86505   -1895577.2   -1895577.2   -1878528.6   -146.29949    6117627.7    101.72631    101.66827      591.513    8935.6953 
11750000      74.9883    300.07226   -1895576.9   -1895576.9   -1878516.5    299.44433    6116526.1     101.7213    101.65497      591.513    8592.1239 
11760000      75.9883    299.93716   -1895571.8   -1895571.8   -1878519.1    289.42511    6116673.7    101.72785    101.65088      591.513    8248.7095 
11770000      76.9883    300.31285   -1895603.5   -1895603.5   -1878529.5   -208.18454    6116725.9    101.71265    101.66694      591.513    7905.3413 
11780000      77.9883    299.86437   -1895581.1   -1895581.1   -1878532.5    46.155491    6116626.2    101.71633     101.6616      591.513    7561.9703 
11790000      78.9883    299.73821   -1895577.2   -1895577.2   -1878535.8    30.090459      6116567    101.71618    101.66077      591.513    7218.4964 
11800000      79.9883    299.95376   -1895587.1   -1895587.1   -1878533.4   -694.97973    6117980.5    101.72535     101.6751      591.513    6875.1244 
11810000      80.9883    299.83137     -1895554     -1895554   -1878507.3    368.68643    6117043.4    101.71993    101.66495      591.513    6531.7033 
11820000      81.9883    300.08626   -1895569.6   -1895569.6   -1878508.5   -597.02932    6118010.2    101.72766    101.67329      591.513    6188.2931 
11830000      82.9883    300.26952   -1895558.6   -1895558.6     -1878487    28.683415    6116854.7    101.71791    101.66383      591.513    5844.8352 
11840000      83.9883    299.99177   -1895588.2   -1895588.2   -1878532.4    590.06131      6116664    101.71626    101.66231      591.513    5501.3426 
11850000      84.9883    300.07878   -1895574.4   -1895574.4   -1878513.6   -16.947403    6117047.8    101.71352    101.67143      591.513    5157.7995 
11860000      85.9883    300.02291   -1895561.4   -1895561.4   -1878503.8   -135.00427    6116978.2    101.71773    101.66606      591.513    4814.2642 
11870000      86.9883    300.14209   -1895563.9   -1895563.9   -1878499.6   -538.46849    6116904.3    101.71421    101.66835      591.513    4470.6528 
11880000      87.9883    299.96472   -1895590.6   -1895590.6   -1878536.4    118.91116    6116665.2    101.71887    101.65972      591.513    4127.0444 
11890000      88.9883    300.19832   -1895583.7   -1895583.7   -1878516.2   -305.64355    6116278.3    101.71082    101.66133      591.513    3783.4331 
11900000      89.9883     299.9607   -1895564.8   -1895564.8   -1878510.8      167.024    6116535.8    101.71783     101.6586      591.513    3439.8502 
11910000      90.9883    300.04494     -1895574     -1895574   -1878515.2   -230.52341    6116230.9    101.71239    101.65897      591.513     3096.236 
11920000      91.9883    300.13355   -1895562.7   -1895562.7   -1878498.9   -214.22499    6116002.4    101.70351    101.66405      591.513    2752.6362 
11930000      92.9883    299.94708   -1895584.1   -1895584.1   -1878530.9    -215.7382    6116409.8    101.71113    101.66321      591.513    2409.0696 
11940000      93.9883    299.98521   -1895566.9   -1895566.9   -1878511.5    10.354281    6115905.1    101.71019    101.65576      591.513    2065.4973 
11950000      94.9883     300.1289   -1895574.1   -1895574.1   -1878510.5   -139.99985    6116714.9    101.71505    101.66436      591.513      1721.91 
11960000      95.9883    299.88486   -1895567.1   -1895567.1   -1878517.4   -39.582608    6115892.9    101.71617    101.64958      591.513     1378.316 
11970000      96.9883    299.78591   -1895571.4   -1895571.4   -1878527.3   -75.782062    6117036.1    101.71847    101.66628      591.513     1034.738 
11980000      97.9883    300.00061   -1895562.1   -1895562.1   -1878505.8    67.669375    6115915.3    101.71652     101.6496      591.513    691.16526 
11990000      98.9883    300.09366   -1895583.4   -1895583.4   -1878521.9   -101.48007    6116336.6    101.71462     101.6585      591.513    347.59135 
12000000      99.9883    300.22783   -1895562.5   -1895562.5   -1878493.3    347.37032    6116283.6    101.70798    101.66426      591.513    4.0197505 
12000117          100    299.87499   -1895569.4   -1895569.4   -1878520.2     114.3195    6116188.6    101.72258    101.64808      591.513            0 
Loop time of 34356.9 on 96 procs for 1000000 steps with 439844 atoms

Performance: 0.251 ns/day, 95.436 hours/ns, 29.106 timesteps/s
100.0% CPU use with 96 MPI tasks x 1 OpenMP threads

MPI task timing breakdown:
Section |  min time  |  avg time  |  max time  |%varavg| %total
---------------------------------------------------------------
Pair    | 5062.4     | 19789      | 33312      |4891.2 | 57.60
Neigh   | 0.43792    | 26.084     | 37.088     | 215.2 |  0.08
Comm    | 425.78     | 7684.1     | 28658      |10367.0 | 22.37
Output  | 1.9929     | 1.9951     | 2.0216     |   0.2 |  0.01
Modify  | 492.52     | 6778.7     | 11843      |5748.1 | 19.73
Other   |            | 77.41      |            |       |  0.23

Nlocal:        4581.71 ave        6046 max         154 min
Histogram: 12 0 0 0 0 0 7 25 16 36
Nghost:        8538.65 ave       10781 max        3348 min
Histogram: 12 0 0 0 0 11 1 36 13 23
Neighs:         0.00000 ave           0 max           0 min
Histogram: 96 0 0 0 0 0 0 0 0 0
FullNghs:      870980.0 ave  1.2737e+06 max        6908 min
Histogram: 12 0 0 0 0 17 18 2 23 24

Total # of neighbors = 83614102
Ave neighs/atom = 190.09945
Neighbor list builds = 1087
Dangerous builds = 0
System init for write_restart ...
System init for write_data ...
Total wall time: 9:32:38
