LAMMPS (29 Sep 2021)
  using 1 OpenMP thread(s) per MPI task
Reading restart file ...
  restart file = 29 Sep 2021, LAMMPS = 29 Sep 2021
  restoring atom style atomic from restart
  orthogonal box = (-0.30974936 -0.27553831 0.0000000) to (101.38242 101.34821 591.33400)
  3 by 2 by 16 MPI processor grid
  pair style hybrid/overlay stores no restart info
  441844 atoms
  read_restart CPU = 0.170 seconds
Resetting global fix info from restart file:
  fix style: npt, fix ID: 2

CITE-CITE-CITE-CITE-CITE-CITE-CITE-CITE-CITE-CITE-CITE-CITE-CITE

Your simulation uses code contributions which should be cited:
- @article{cjiang2012
The log file lists these citations in BibTeX format.

CITE-CITE-CITE-CITE-CITE-CITE-CITE-CITE-CITE-CITE-CITE-CITE-CITE

All restart file global fix info was re-assigned
Unused restart file peratom fix info:
  fix style: STORE, fix ID: spatialbins_COMPUTE_STORE
Neighbor list info ...
  update every 1 steps, delay 10 steps, check yes
  max neighbors/atom: 2000, page size: 100000
  master list distance cutoff = 8.28721
  ghost atom cutoff = 8.28721
  binsize = 4.143605, bins = 25 25 143
  3 neighbor lists, perpetual/occasional/extra = 3 0 0
  (1) pair eam/alloy, perpetual, skip from (3)
      attributes: half, newton on
      pair build: skip
      stencil: none
      bin: none
  (2) pair edip/multi, perpetual
      attributes: full, newton on
      pair build: full/bin/atomonly
      stencil: full/bin/3d
      bin: standard
  (3) neighbor class addition, perpetual, half/full from (2)
      attributes: half, newton on
      pair build: halffull/newton
      stencil: none
      bin: none
Setting up Verlet run ...
  Unit style    : metal
  Current step  : 11000071
  Time step     : 0.0001
Per MPI rank memory allocation (min/avg/max) = 5.188 | 11.75 | 17.23 Mbytes
Step Time Temp PotEng E_pair TotEng Press Volume Lx Ly Lz CPULeft 
11000071            0     299.7569   -1909168.6   -1909168.6   -1892048.7   -307.70506      6111046    101.69217    101.62375      591.334            0 
11010000       0.9929    299.98887   -1909145.8   -1909145.8   -1892012.6     308.2241    6111335.5    101.69097    101.62976      591.334    33567.182 
11020000       1.9929    300.10567   -1909143.8   -1909143.8     -1892004   -321.96851    6110919.9    101.69131    101.62251      591.334    33283.733 
11030000       2.9929    299.69119   -1909127.3   -1909127.3   -1892011.1    90.050394    6111988.7     101.6892    101.64239      591.334    32957.481 
11040000       3.9929    300.19771   -1909139.5   -1909139.5   -1891994.4    270.13423    6111692.9    101.69347     101.6332      591.334     32638.11 
11050000       4.9929    300.11224   -1909171.5   -1909171.5   -1892031.3   -21.206662    6110793.8     101.6903    101.62142      591.334    32303.597 
11060000       5.9929    299.97961   -1909135.1   -1909135.1   -1892002.4   -543.19048    6110807.6    101.69017    101.62178      591.334     31953.47 
11070000       6.9929    299.71129   -1909187.6   -1909187.6   -1892070.3    515.16483    6110292.3    101.67866    101.62471      591.334    31606.997 
11080000       7.9929    299.97368   -1909173.4   -1909173.4   -1892041.1   -42.485325    6109752.4    101.67954    101.61485      591.334    31261.573 
11090000       8.9929     300.0351   -1909149.9   -1909149.9   -1892014.1     111.2185    6109770.6     101.6718    101.62288      591.334    30917.584 
11100000       9.9929     299.9652   -1909128.7   -1909128.7   -1891996.9    -88.90603      6109697    101.68249    101.61098      591.334     30574.69 
11110000      10.9929    300.29533   -1909104.5   -1909104.5   -1891953.9   -236.37775      6109491    101.68087    101.60917      591.334    30233.383 
11120000      11.9929    299.91163   -1909173.7   -1909173.7   -1892044.9    419.33794    6109428.4    101.67829    101.61071      591.334    29889.599 
11130000      12.9929     300.2352   -1909166.3   -1909166.3   -1892019.1    584.26358    6108562.7    101.66961    101.60499      591.334    29545.842 
11140000      13.9929    300.05383   -1909147.6   -1909147.6   -1892010.7   -382.49731    6109425.9    101.67252    101.61644      591.334    29202.543 
11150000      14.9929    299.80913   -1909144.2   -1909144.2   -1892021.3   -315.25317    6109665.8    101.68812    101.60483      591.334    28857.728 
11160000      15.9929    300.18178   -1909157.1   -1909157.1   -1892012.9   -183.06065    6108988.1    101.67148     101.6102      591.334     28512.85 
11170000      16.9929    300.23214   -1909144.8   -1909144.8   -1891997.7   -294.50301    6110010.6    101.67796    101.62072      591.334    28169.946 
11180000      17.9929    300.08723   -1909129.2   -1909129.2   -1891990.4   -172.74169    6109749.8    101.68308    101.61127      591.334    27827.238 
11190000      18.9929    300.19207   -1909141.4   -1909141.4   -1891996.6    405.84435    6110315.6    101.69279    101.61097      591.334    27484.982 
11200000      19.9929    299.93184   -1909151.1   -1909151.1   -1892021.2    314.51696    6108771.2     101.6804    101.59767      591.334    27141.794 
11210000      20.9929    299.95542   -1909173.2   -1909173.2   -1892041.9   -145.01546    6110010.9    101.68305    101.61564      591.334    26799.652 
11220000      21.9929    300.19173   -1909155.5   -1909155.5   -1892010.7   -516.71781    6110746.6    101.68685    101.62408      591.334    26459.968 
11230000      22.9929    299.85913   -1909192.7   -1909192.7   -1892066.9    332.30799    6110725.7    101.68413    101.62645      591.334     26119.66 
11240000      23.9929    299.72351   -1909164.8   -1909164.8   -1892046.8   -91.967234    6110940.6    101.68992    101.62424      591.334     25781.56 
11250000      24.9929    299.89966   -1909163.4   -1909163.4   -1892035.3   -230.74648    6111111.7    101.68619    101.63081      591.334    25442.596 
11260000      25.9929     300.1201   -1909182.1   -1909182.1   -1892041.4    127.18353    6109944.5    101.67885    101.61873      591.334    25103.775 
11270000      26.9929    300.25657   -1909151.7   -1909151.7   -1892003.2   -71.789348    6110709.6    101.68277    101.62754      591.334    24764.983 
11280000      27.9929    299.98405   -1909151.9   -1909151.9     -1892019    593.27669    6110628.5    101.68027    101.62869      591.334    24427.066 
11290000      28.9929    299.87687   -1909156.2   -1909156.2   -1892029.4    247.02447    6110686.9      101.685    101.62494      591.334    24087.958 
11300000      29.9929    299.89573   -1909167.3   -1909167.3   -1892039.5   -212.12391    6111103.4    101.69013    101.62673      591.334    23748.839 
11310000      30.9929    300.17444   -1909183.9   -1909183.9   -1892040.2     295.1053    6110421.2    101.67369    101.63182      591.334    23409.955 
11320000      31.9929    299.96247   -1909148.1   -1909148.1   -1892016.5   -297.70616    6111159.1    101.68442    101.63337      591.334    23071.123 
11330000      32.9929    300.00944   -1909151.4   -1909151.4     -1892017    90.524779    6109974.8    101.68854    101.60956      591.334    22732.313 
11340000      33.9929    300.02325   -1909170.1   -1909170.1     -1892035    178.36622      6109536    101.67918    101.61162      591.334     22393.76 
11350000      34.9929    299.92469   -1909132.3   -1909132.3   -1892002.8    56.403792    6109534.7    101.67421    101.61656      591.334    22053.947 
11360000      35.9929    300.16346   -1909206.3   -1909206.3   -1892063.2   -233.71357    6109196.1    101.68239    101.60276      591.334    21714.834 
11370000      36.9929    300.21703   -1909159.4   -1909159.4   -1892013.2    8.7823155    6109290.4    101.67106    101.61564      591.334    21374.795 
11380000      37.9929    300.10234   -1909143.2   -1909143.2   -1892003.5    -34.53535    6109564.6    101.67249    101.61877      591.334    21035.299 
11390000      38.9929    299.85905   -1909170.6   -1909170.6   -1892044.9   -266.30278    6110398.4    101.68256    101.62258      591.334    20695.684 
11400000      39.9929    300.16442   -1909173.4   -1909173.4   -1892030.2   -631.95978    6108937.2    101.66972     101.6111      591.334    20356.299 
11410000      40.9929    299.86261     -1909150     -1909150     -1892024   -31.842289    6109306.6     101.6762    101.61077      591.334    20016.568 
11420000      41.9929    300.23111   -1909136.2   -1909136.2   -1891989.2    170.51858    6109729.3    101.67788    101.61613      591.334    19677.115 
11430000      42.9929    299.95845   -1909129.9   -1909129.9   -1891998.5     98.10127    6109163.4     101.6791    101.60549      591.334    19337.507 
11440000      43.9929    299.92339   -1909190.7   -1909190.7   -1892061.3    32.321911    6109153.9    101.68355    101.60089      591.334     18997.19 
11450000      44.9929    299.94944     -1909167     -1909167   -1892036.1    54.278119    6109686.5    101.68008    101.61321      591.334    18657.478 
11460000      45.9929    299.74748   -1909159.9   -1909159.9   -1892040.5   -52.207607    6110778.9    101.68476    101.62671      591.334    18318.182 
11470000      46.9929    300.08222     -1909157     -1909157   -1892018.5     315.6722    6109944.4    101.68073    101.61686      591.334    17978.984 
11480000      47.9929    299.95826   -1909176.2   -1909176.2   -1892044.8    426.34674      6109733    101.67619    101.61788      591.334    17639.472 
11490000      48.9929    300.04029   -1909162.5   -1909162.5   -1892026.3    56.722507    6110113.7    101.67892    101.62148      591.334    17300.057 
11500000      49.9929    299.88842   -1909152.8   -1909152.8   -1892025.4    388.74972    6109598.9    101.67381    101.61802      591.334    16960.825 
11510000      50.9929    299.81591   -1909139.5   -1909139.5   -1892016.2    520.12703    6110570.4    101.68782    101.62019      591.334    16621.398 
11520000      51.9929    300.04099     -1909171     -1909171   -1892034.9   -60.946488    6110377.9    101.69449    101.61031      591.334    16282.384 
11530000      52.9929    299.90044   -1909175.8   -1909175.8   -1892047.7   -224.47348    6110648.4    101.68072    101.62857      591.334    15943.099 
11540000      53.9929     300.1487     -1909151     -1909151   -1892008.7   -218.98266    6110520.3     101.6863    101.62087      591.334    15604.226 
11550000      54.9929    299.97353   -1909146.3   -1909146.3     -1892014   -445.12358    6110846.6    101.68824    101.62436      591.334      15265.3 
11560000      55.9929    299.98565   -1909147.1   -1909147.1   -1892014.1    99.663473    6110461.4    101.68059    101.62559      591.334    14926.414 
11570000      56.9929    299.76096   -1909160.2   -1909160.2     -1892040    226.81995    6110969.5    101.68536    101.62927      591.334    14587.321 
11580000      57.9929    299.85155   -1909208.5   -1909208.5   -1892083.2    163.79238    6110983.3    101.69916    101.61572      591.334    14247.965 
11590000      58.9929    300.41729   -1909161.7   -1909161.7   -1892004.1    201.37658    6110643.1    101.68252    101.62669      591.334    13909.004 
11600000      59.9929    299.74491   -1909161.3   -1909161.3   -1892042.1     28.33798    6110627.7    101.69231    101.61665      591.334    13569.763 
11610000      60.9929     299.8248   -1909149.2   -1909149.2   -1892025.4     497.2754    6109794.6    101.67692    101.61817      591.334    13230.696 
11620000      61.9929    300.11985   -1909179.5   -1909179.5   -1892038.8    344.58903    6109977.7    101.68566    101.61248      591.334    12891.442 
11630000      62.9929    300.14287   -1909154.9   -1909154.9   -1892012.9   -181.33985    6109667.9    101.67905    101.61393      591.334    12552.025 
11640000      63.9929    299.88218   -1909147.7   -1909147.7   -1892020.7    321.14932    6109377.3     101.6733    101.61485      591.334    12212.862 
11650000      64.9929    299.93242   -1909156.7   -1909156.7   -1892026.8   -159.91275    6109736.1    101.67586    101.61826      591.334     11873.28 
11660000      65.9929    299.98254   -1909149.1   -1909149.1   -1892016.3   -287.25761    6109869.6    101.68475     101.6116      591.334    11533.758 
11670000      66.9929    300.08917   -1909141.6   -1909141.6   -1892002.7    179.01597    6109998.4    101.68322    101.61526      591.334    11194.561 
11680000      67.9929    299.79123   -1909168.5   -1909168.5   -1892046.6   -289.62126    6110207.3    101.67653    101.62543      591.334    10855.359 
11690000      68.9929    299.74541   -1909167.8   -1909167.8   -1892048.6   -240.74628    6110215.7    101.68488    101.61722      591.334    10516.012 
11700000      69.9929    300.11848   -1909129.2   -1909129.2   -1891988.6    69.877943    6110165.5    101.68291    101.61836      591.334    10176.787 
11710000      70.9929    300.01545     -1909122     -1909122   -1891987.3    3.0340847    6109745.1     101.6777    101.61657      591.334     9837.466 
11720000      71.9929    299.79574   -1909164.1   -1909164.1     -1892042   -369.22351    6110061.3    101.68272    101.61681      591.334    9498.0842 
11730000      72.9929    300.09771   -1909157.4   -1909157.4     -1892018    76.164622    6109863.2    101.68207    101.61416      591.334    9159.0075 
11740000      73.9929     300.0614   -1909156.9   -1909156.9   -1892019.6    319.88505    6110486.5    101.68566    101.62095      591.334    8819.8462 
11750000      74.9929    299.82825   -1909162.2   -1909162.2   -1892038.2    352.23219    6110665.3    101.68699    101.62259      591.334    8480.6607 
11760000      75.9929    300.09054   -1909169.5   -1909169.5   -1892030.5   -544.79761    6110734.9    101.68413    101.62661      591.334    8141.5288 
11770000      76.9929    300.10554   -1909174.1   -1909174.1   -1892034.3   -570.71323    6111092.9    101.69588    101.62082      591.334    7802.4097 
11780000      77.9929    299.93825   -1909144.6   -1909144.6   -1892014.3    506.82475    6110309.6    101.67845     101.6252      591.334    7463.2754 
11790000      78.9929    300.30975   -1909137.2   -1909137.2   -1891985.7   -450.68108    6110940.8    101.69316      101.621      591.334    7124.1866 
11800000      79.9929    299.86328     -1909174     -1909174     -1892048    187.61447    6110559.5    101.68057    101.62724      591.334    6785.1693 
11810000      80.9929    299.84272   -1909183.1   -1909183.1   -1892058.3    29.283733    6111405.8     101.6968     101.6251      591.334    6446.1662 
11820000      81.9929    299.86254   -1909191.3   -1909191.3   -1892065.3    403.78452    6111053.4    101.69609    101.61995      591.334     6107.111 
11830000      82.9929    299.91042   -1909173.7   -1909173.7   -1892045.1    326.77514    6111830.9    101.69312    101.63584      591.334    5768.0432 
11840000      83.9929    299.89591   -1909187.7   -1909187.7   -1892059.9   -146.25777    6110473.9    101.68498    101.62141      591.334    5428.9053 
11850000      84.9929    299.95008   -1909158.5   -1909158.5   -1892027.5   -202.63454    6111193.8    101.68621    101.63216      591.334    5089.7167 
11860000      85.9929    300.08633   -1909152.7   -1909152.7     -1892014     5.908791    6110264.7    101.68568    101.61723      591.334    4750.6006 
11870000      86.9929    300.04669   -1909187.6   -1909187.6   -1892051.1    408.24899    6109819.2    101.68726    101.60824      591.334     4411.435 
11880000      87.9929    300.08158   -1909170.4   -1909170.4   -1892031.9   -542.49524    6110644.8    101.68975    101.61949      591.334    4072.2551 
11890000      88.9929    300.09352   -1909160.6   -1909160.6   -1892021.4   -50.122775    6109949.1    101.67498    101.62268      591.334    3733.0667 
11900000      89.9929    299.81014   -1909175.2   -1909175.2   -1892052.2   -355.43429    6109963.5    101.68034    101.61757      591.334    3393.9138 
11910000      90.9929    299.89233   -1909166.3   -1909166.3   -1892038.6   -602.31965    6109379.7    101.67587    101.61232      591.334    3054.7046 
11920000      91.9929     299.8724   -1909188.5   -1909188.5     -1892062    179.86792    6109255.6    101.68014    101.60599      591.334    2715.5055 
11930000      92.9929    299.94722   -1909195.6   -1909195.6   -1892064.8   -117.22796    6108891.1    101.67177    101.60829      591.334    2376.3348 
11940000      93.9929    299.83433   -1909160.7   -1909160.7   -1892036.4   -165.47198    6110144.9    101.68013    101.62079      591.334      2037.16 
11950000      94.9929    299.81335   -1909167.2   -1909167.2     -1892044    79.915679    6110470.3     101.6827    101.62363      591.334    1698.0153 
11960000      95.9929    300.12393   -1909154.6   -1909154.6   -1892013.7   -196.85301    6110018.4    101.67912    101.61969      591.334    1358.8878 
11970000      96.9929    300.00821   -1909190.3   -1909190.3     -1892056     171.3269    6109447.4    101.67583    101.61349      591.334    1019.7665 
11980000      97.9929    299.78543   -1909161.3   -1909161.3   -1892039.8    542.20147    6109783.5    101.68469    101.61023      591.334      680.651 
11990000      98.9929    300.07767     -1909192     -1909192   -1892053.7    363.04405      6110268    101.67939    101.62358      591.334    341.52949 
12000000      99.9929    300.08888   -1909189.1   -1909189.1   -1892050.2   -132.97856      6109289    101.66745    101.61923      591.334    2.4077791 
12000071          100     299.7106   -1909171.1   -1909171.1   -1892053.8    149.37814    6109742.4    101.68112     101.6131      591.334            0 
Loop time of 33912.4 on 96 procs for 1000000 steps with 441844 atoms

Performance: 0.255 ns/day, 94.201 hours/ns, 29.488 timesteps/s
100.0% CPU use with 96 MPI tasks x 1 OpenMP threads

MPI task timing breakdown:
Section |  min time  |  avg time  |  max time  |%varavg| %total
---------------------------------------------------------------
Pair    | 5352.5     | 19723      | 32861      |4823.9 | 58.16
Neigh   | 0.79866    | 25.503     | 36.061     | 207.9 |  0.08
Comm    | 412.08     | 7547.6     | 27940      |10199.8 | 22.26
Output  | 1.9423     | 1.9438     | 1.9704     |   0.2 |  0.01
Modify  | 497.45     | 6538.2     | 11572      |5746.7 | 19.28
Other   |            | 76.17      |            |       |  0.22

Nlocal:        4602.54 ave        6095 max         275 min
Histogram: 12 0 0 0 0 0 12 24 12 36
Nghost:        8584.30 ave       10940 max        3601 min
Histogram: 12 0 0 0 0 4 20 32 10 18
Neighs:         0.00000 ave           0 max           0 min
Histogram: 96 0 0 0 0 0 0 0 0 0
FullNghs:      872952.0 ave 1.26721e+06 max       14347 min
Histogram: 12 0 0 0 0 12 23 3 22 24

Total # of neighbors = 83803432
Ave neighs/atom = 189.66747
Neighbor list builds = 1062
Dangerous builds = 0
System init for write_restart ...
System init for write_data ...
Total wall time: 9:25:13
