LAMMPS (29 Sep 2021)
  using 1 OpenMP thread(s) per MPI task
Reading data file ...
  orthogonal box = (-0.26132258 -0.26394554 0.0000000) to (101.47871 101.48133 719.80400)
  1 by 2 by 12 MPI processor grid
  reading atoms ...
  516124 atoms
  reading velocities ...
  516124 velocities
  read_data CPU = 1.109 seconds
258178 atoms in group g_left
257946 atoms in group g_right

CITE-CITE-CITE-CITE-CITE-CITE-CITE-CITE-CITE-CITE-CITE-CITE-CITE

Your simulation uses code contributions which should be cited:
- GPU package (short-range, long-range and three-body potentials):
The log file lists these citations in BibTeX format.

CITE-CITE-CITE-CITE-CITE-CITE-CITE-CITE-CITE-CITE-CITE-CITE-CITE


--------------------------------------------------------------------------
- Using acceleration for eam/alloy:
-  with 12 proc(s) per device.
-  Horizontal vector operations: ENABLED
-  Shared memory system: No
--------------------------------------------------------------------------
Device 0: Tesla V100-SXM2-32GB, 80 CUs, 28/32 GB, 1.5 GHZ (Mixed Precision)
Device 1: Tesla V100-SXM2-32GB, 80 CUs, 1.5 GHZ (Mixed Precision)
--------------------------------------------------------------------------

Initializing Device and compiling on process 0...Done.
Initializing Devices 0-1 on core 0...Done.
Initializing Devices 0-1 on core 1...Done.
Initializing Devices 0-1 on core 2...Done.
Initializing Devices 0-1 on core 3...Done.
Initializing Devices 0-1 on core 4...Done.
Initializing Devices 0-1 on core 5...Done.
Initializing Devices 0-1 on core 6...Done.
Initializing Devices 0-1 on core 7...Done.
Initializing Devices 0-1 on core 8...Done.
Initializing Devices 0-1 on core 9...Done.
Initializing Devices 0-1 on core 10...Done.
Initializing Devices 0-1 on core 11...Done.

Setting up Verlet run ...
  Unit style    : metal
  Current step  : 0
  Time step     : 0.00025
Per MPI rank memory allocation (min/avg/max) = 8.790 | 11.48 | 11.84 Mbytes
Step Time Temp Press PotEng KinEng TotEng Volume 
       0            0    15774.224    148033.15   -1999067.5    1052363.7   -946703.76    7451099.8 
     100        0.025    15772.984    148281.55   -1999099.7      1052281   -946818.69    7435572.5 
     200         0.05    15773.143    148597.51   -1999084.6    1052291.6   -946793.01    7420045.1 
     300        0.075    15774.195    148909.29     -1999091    1052361.8   -946729.23    7404517.8 
     400          0.1    15773.634    149208.87     -1999075    1052324.3   -946750.64    7388990.4 
     500        0.125     15773.22     149506.1   -1999094.8    1052296.7   -946798.08      7373463 
     600         0.15     15773.37    149821.44   -1999090.7    1052306.7   -946783.94    7357935.7 
     700        0.175     15773.69    150127.79   -1999088.6    1052328.1   -946760.48    7342408.3 
     800          0.2    15772.998    150438.74   -1999060.3    1052281.9   -946778.39      7326881 
     900        0.225     15773.22     150744.7   -1999078.2    1052296.7   -946781.53    7311353.6 
    1000         0.25    15773.817    151062.28   -1999083.7    1052336.6   -946747.16    7295826.3 
    1100        0.275    15774.295    151384.73   -1999090.3    1052368.4   -946721.85    7280298.9 
    1200          0.3    15774.207     151709.7   -1999102.3    1052362.6   -946739.68    7264771.6 
    1300        0.325    15773.626    152059.62   -1999070.4    1052323.8   -946746.58    7249244.2 
    1400         0.35    15774.317    152375.03   -1999081.9    1052369.9   -946711.97    7233716.9 
    1500        0.375    15774.939    152676.43   -1999108.1    1052411.4    -946696.7    7218189.5 
    1600          0.4    15779.767    152952.24     -1999441    1052733.5   -946707.46    7202662.2 
    1700        0.425     15801.19    153474.81   -2000858.8    1054162.7    -946696.1    7187134.8 
    1800         0.45    15761.003    156365.86   -1998150.1    1051481.7   -946668.41    7171607.5 
    1900        0.475    15674.821    159299.72   -1992386.2    1045732.1   -946654.08    7156080.1 
    2000          0.5    15610.973     162491.1   -1988134.3    1041472.5   -946661.76    7140552.8 
    2100        0.525    15537.213    166152.72   -1983207.7    1036551.7   -946656.01    7125025.4 
    2200         0.55    15479.031     169483.1   -1979308.5    1032670.1   -946638.39    7109498.1 
    2300        0.575    15396.848    172901.97   -1973840.6    1027187.4   -946653.18    7093970.7 
    2400          0.6    15335.923    176638.15   -1969794.3    1023122.8    -946671.5    7078443.4 
    2500        0.625    15266.043    180275.39   -1965111.2    1018460.9   -946650.29      7062916 
    2600         0.65    15199.252    184037.03   -1960642.3    1014004.9    -946637.4    7047388.7 
    2700        0.675    15128.847    187745.27   -1955961.9    1009307.9   -946653.99    7031861.3 
    2800          0.7    15063.708     191391.1   -1951616.4    1004962.3   -946654.16      7016334 
    2900        0.725    14997.713    195098.47   -1947179.6    1000559.5   -946620.12    7000806.6 
    3000         0.75    14930.768     198911.5   -1942695.2    996093.23   -946601.96    6985279.3 
    3100        0.775    14865.017    202675.99   -1938327.8    991706.71   -946621.13    6969751.9 
    3200          0.8    14793.685    206184.01   -1933590.3     986947.9   -946642.39    6954224.6 
    3300        0.825    14727.187    209802.25   -1929147.4     982511.5   -946635.86    6938697.2 
    3400         0.85    14660.182    213477.19   -1924670.2    978041.32   -946628.84    6923169.9 
    3500        0.875    14591.014    217078.96     -1920058    973426.85    -946631.2    6907642.5 
    3600          0.9    14522.929    220746.17   -1915494.6    968884.62   -946609.97    6892115.2 
    3700        0.925    14454.909    224327.99   -1910928.3    964346.71   -946581.55    6876587.8 
    3800         0.95    14388.021    228031.99   -1906461.4    959884.38   -946577.02    6861060.4 
    3900        0.975    14319.943    231779.54   -1901944.6    955342.61   -946602.01    6845533.1 
    4000            1    14252.288    235447.41   -1897444.9    950829.04    -946615.9    6830005.7 
    4100        1.025    14187.994    239000.15   -1893136.3    946539.74   -946596.55    6814478.4 
    4200         1.05     14137.43       241631   -1889749.2    943166.38   -946582.85      6798951 
    4300        1.075    14061.349    246279.87     -1884687    938090.73    -946596.3    6783423.7 
    4400          1.1    13972.986    248892.82   -1878808.4    932195.65   -946612.76    6767896.3 
    4500        1.125    13849.973    252410.76   -1870613.8    923988.92   -946624.87      6752369 
    4600         1.15    13781.147    257880.18   -1866048.7    919397.28    -946651.4    6736841.6 
    4700        1.175    13658.829    262645.33   -1857916.5    911236.93   -946679.58    6721314.3 
    4800          1.2    13571.405    266479.17   -1852076.6    905404.55   -946672.06    6705786.9 
    4900        1.225    13462.287    271236.68   -1844773.5    898124.81   -946648.67    6690259.6 
    5000         1.25    13351.807    276195.12   -1837410.2    890754.22   -946655.96    6674732.2 
    5100        1.275    13268.192    280724.78   -1831849.6    885175.91   -946673.68    6659204.9 
    5200          1.3    13152.768    285725.63   -1824134.9    877475.52   -946659.37    6643677.5 
    5300        1.325      13060.4    290386.05   -1817946.9    871313.26   -946633.61    6628150.2 
    5400         1.35    12958.336    294876.18   -1811159.3    864504.18   -946655.15    6612622.8 
    5500        1.375    12848.788    299931.74   -1803899.2    857195.74   -946703.49    6597095.5 
    5600          1.4      12757.6    305375.35   -1797825.7    851112.21   -946713.54    6581568.1 
    5700        1.425    12646.702    311456.94   -1790406.3    843713.76   -946692.52    6566040.8 
    5800         1.45    12560.873    317527.99   -1784657.2    837987.74   -946669.47    6550513.4 
    5900        1.475    12464.992    323164.85   -1778240.2    831591.11    -946649.1    6534986.1 
    6000          1.5    12384.746    328682.26   -1772871.1    826237.59   -946633.48    6519458.7 
    6100        1.525    12311.329    334068.57   -1767977.2    821339.66   -946637.57    6503931.4 
    6200         1.55    12239.344     339827.4   -1763183.4    816537.22   -946646.14      6488404 
    6300        1.575    12173.111     345198.4   -1758735.3    812118.58   -946616.74    6472876.7 
    6400          1.6    12164.093    348317.12   -1758096.4    811516.93    -946579.5    6457349.3 
    6500        1.625    12125.584    350504.67   -1755529.8    808947.85   -946581.95      6441822 
    6600         1.65    12070.576     353348.4   -1751883.3    805278.04   -946605.22    6426294.6 
    6700        1.675    12056.555    357039.24   -1750940.9     804342.6   -946598.29    6410767.3 
    6800          1.7    12014.772    361558.25   -1748145.5     801555.1    -946590.4    6395239.9 
    6900        1.725     11979.62    365394.91   -1745827.3    799209.95   -946617.37    6379712.6 
    7000         1.75     11967.21    368216.48   -1745024.9    798382.03   -946642.91    6364185.2 
    7100        1.775    11913.048    371629.84   -1741407.7    794768.67      -946639    6348657.9 
    7200          1.8    11875.356    375411.67   -1738872.8    792254.07   -946618.73    6333130.5 
    7300        1.825    11835.597    379368.39     -1736210    789601.63   -946608.37    6317603.1 
    7400         1.85    11794.193    383500.02   -1733435.2    786839.38   -946595.86    6302075.8 
    7500        1.875    11764.643    385994.24   -1731458.3    784867.95   -946590.34    6286548.4 
    7600          1.9    11706.756    387770.35   -1727609.1    781006.07   -946603.02    6271021.1 
    7700        1.925    11660.369    390651.07     -1724542    777911.44   -946630.56    6255493.7 
    7800         1.95    11619.406    394479.94   -1721820.3    775178.59    -946641.7    6239966.4 
    7900        1.975     11568.22    398442.86     -1718397    771763.76   -946633.29      6224439 
    8000            2    11517.496     402228.1   -1715015.6    768379.75   -946635.85    6208911.7 
    8100        2.025    11443.294    405162.13   -1710094.9    763429.45   -946665.43    6193384.3 
    8200         2.05    11375.699    407591.41   -1705599.7    758919.91   -946679.81      6177857 
    8300        2.075    11311.993    410536.15   -1701338.4     754669.8   -946668.62    6162329.6 
    8400          2.1    11245.328    413671.58   -1696877.3    750222.31   -946654.99    6146802.3 
    8500        2.125    11176.196    416697.24   -1692280.3    745610.21   -946670.11    6131274.9 
    8600         2.15    11109.551    420370.83   -1687842.6     741164.1   -946678.52    6115747.6 
    8700        2.175    11039.654    424340.68   -1683176.3    736500.95    -946675.3    6100220.2 
    8800          2.2    10963.488    428956.02   -1678085.8    731419.62   -946666.16    6084692.9 
    8900        2.225    10865.299    434951.47   -1671537.5    724869.03   -946668.48    6069165.5 
    9000         2.25    10758.069    441595.13   -1664386.2    717715.26   -946670.95    6053638.2 
    9100        2.275     10620.97    447969.43   -1655237.7    708568.83   -946668.85    6038110.8 
    9200          2.3    10506.361    456251.77   -1647586.8    700922.74   -946664.06    6022583.5 
    9300        2.325    10374.047    464591.13   -1638751.8    692095.59   -946656.17    6007056.1 
    9400         2.35    10234.973    472522.05   -1629453.1    682817.39   -946635.71    5991528.8 
    9500        2.375    10098.493    481669.19   -1620336.4    673712.21   -946624.17    5976001.4 
    9600          2.4    9956.2336     490860.9   -1610869.1     664221.5   -946647.57    5960474.1 
    9700        2.425    9826.6548    498750.86     -1602262    655576.76    -946685.2    5944946.7 
    9800         2.45    9704.7182    506063.06   -1594128.6    647441.87   -946686.78    5929419.4 
    9900        2.475    9579.0823    513165.32   -1585744.2    639060.18   -946683.98      5913892 
   10000          2.5    9463.8596    520275.39   -1578078.5    631373.19    -946705.3    5898364.7 
   10100        2.525    9359.0527    527363.61   -1571092.5    624381.09   -946711.38    5882837.3 
   10200         2.55    9249.5986    533697.93   -1563752.9    617078.96   -946673.98      5867310 
   10300        2.575     9161.691    539598.58   -1557857.9    611214.28   -946643.63    5851782.6 
   10400          2.6      9060.36    545364.17   -1551103.5    604454.07   -946649.47    5836255.3 
   10500        2.625     8983.239     551147.3   -1545942.5    599309.01   -946633.47    5820727.9 
   10600         2.65    8897.1665       557226   -1540179.5    593566.75   -946612.71    5805200.5 
   10700        2.675    8821.7063    563033.45   -1535174.1    588532.49   -946641.62    5789673.2 
   10800          2.7    8745.9614    568597.47   -1530155.2    583479.24   -946676.01    5774145.8 
   10900        2.725    8673.4831    574511.38   -1525309.4    578643.92   -946665.52    5758618.5 
   11000         2.75    8608.6809    581061.14   -1520963.1    574320.69   -946642.41    5743091.1 
   11100        2.775    8543.9013    587021.94   -1516667.2    569998.97   -946668.18    5727563.8 
   11200          2.8    8521.3808    591108.69   -1515208.4    568496.54   -946711.87    5712036.4 
   11300        2.825    8496.9868    594112.19   -1513594.8    566869.12   -946725.65    5696509.1 
   11400         2.85    8457.6793    598082.62   -1510968.7    564246.75   -946721.99    5680981.7 
   11500        2.875    8438.1887    602222.09   -1509667.1    562946.45   -946720.66    5665454.4 
   11600          2.9     8416.352    607316.89   -1508189.3    561489.63   -946699.65      5649927 
   11700        2.925    8375.5552     611769.8   -1505444.5    558767.91   -946676.58    5634399.7 
   11800         2.95     8384.401    615432.56   -1506067.9    559358.05   -946709.86    5618872.3 
   11900        2.975    8341.5097     618966.6   -1503262.8    556496.59   -946766.23      5603345 
   12000            3    8335.9736    622069.03   -1502902.1    556127.26   -946774.88    5587817.6 
   12100        3.025    8329.6399    625650.81   -1502428.9    555704.71   -946724.17    5572290.3 
   12200         3.05    8314.5871    628827.03   -1501377.9    554700.47   -946677.42    5556762.9 
   12300        3.075     8328.152    630812.37     -1502281    555605.45   -946675.53    5541235.6 
   12400          3.1    8315.4545    632714.93   -1501449.1    554758.35   -946690.79    5525708.2 
   12500        3.125    8314.6463    634701.87   -1501396.5    554704.42   -946692.09    5510180.9 
   12600         3.15    8279.4551    639039.78   -1499033.5    552356.68   -946676.85    5494653.5 
   12700        3.175    8233.0249     642507.2   -1495927.9    549259.13   -946668.74    5479126.2 
   12800          3.2    8174.6303    645618.76     -1492042    545363.38   -946678.62    5463598.8 
   12900        3.225    8126.5728     651220.8   -1488830.3    542157.27   -946673.03    5448071.5 
   13000         3.25     8056.863    656548.71   -1484150.4    537506.63    -946643.8    5432544.1 
   13100        3.275     7972.729    661736.52   -1478527.2    531893.71   -946633.51    5417016.8 
   13200          3.3    7887.4673    668686.23   -1472848.8    526205.55   -946643.25    5401489.4 
   13300        3.325    7793.0529    675678.83   -1466523.9    519906.77   -946617.12    5385962.1 
   13400         3.35    7688.1251    682655.27   -1459492.3     512906.6   -946585.73    5370434.7 
   13500        3.375    7582.7685    690128.61   -1452463.2    505877.84   -946585.39    5354907.4 
   13600          3.4    7473.5035    697748.41     -1445171    498588.31   -946582.73      5339380 
   13700        3.425    7361.1171    705022.86   -1437640.9    491090.55   -946550.34    5323852.7 
   13800         3.45    7239.0238    712686.05   -1429473.7     482945.2    -946528.5    5308325.3 
   13900        3.475    7102.6302    722317.75   -1420354.4    473845.82   -946508.55    5292797.9 
   14000          3.5     6969.512    732047.92   -1411450.2    464964.96    -946485.2    5277270.6 
   14100        3.525    6829.5495     741816.4   -1402114.7    455627.48   -946487.22    5261743.2 
   14200         3.55    6688.5269     752262.2   -1392733.8    446219.28   -946514.55    5246215.9 
   14300        3.575    6556.4783    762456.71   -1383925.1    437409.77   -946515.38    5230688.5 
   14400          3.6    6414.2927    772632.17   -1374398.5    427923.98   -946474.56    5215161.2 
   14500        3.625    6272.7398    783368.64   -1364930.8     418480.4   -946450.42    5199633.8 
   14600         3.65    6137.4714    794046.55   -1355903.8    409456.09   -946447.69    5184106.5 
   14700        3.675    6006.3641    803648.52   -1347161.1    400709.38   -946451.68    5168579.1 
   14800          3.7    5930.8532    810982.22   -1342156.5    395671.74   -946484.76    5153051.8 
   14900        3.725    5825.1548     817423.9   -1335131.6    388620.16   -946511.45    5137524.4 
   15000         3.75    5714.0939    824134.62     -1327693    381210.82   -946482.23    5121997.1 
   15100        3.775     5635.164    831794.11   -1322388.5    375945.08   -946443.41    5106469.7 
   15200          3.8    5541.1671    840714.04   -1316129.6    369674.16   -946455.45    5090942.4 
   15300        3.825     5447.716    848626.18   -1309914.5    363439.66   -946474.81      5075415 
   15400         3.85    5394.8189    856457.08   -1306379.9    359910.67   -946469.27    5059887.7 
   15500        3.875    5287.8207    864331.02   -1299236.7    352772.38   -946464.37    5044360.3 
   15600          3.9    5237.5707    871596.77   -1295896.2    349419.99   -946476.25      5028833 
   15700        3.925    5170.7071    878956.51     -1291456    344959.24   -946496.74    5013305.6 
   15800         3.95    5113.8927    885604.06   -1287700.3    341168.92   -946531.42    4997778.3 
   15900        3.975    5086.8884    890542.47   -1285940.6    339367.35   -946573.28    4982250.9 
   16000            4    5045.0175    895087.22   -1283148.3    336573.97   -946574.31    4966723.6 
   16100        4.025    5029.9126    899743.23     -1282106    335566.26    -946539.7    4951196.2 
   16200         4.05    5005.5644    904696.34     -1280486    333941.89    -946544.1    4935668.9 
   16300        4.075    4997.2232     908917.8   -1279965.6    333385.42   -946580.15    4920141.5 
   16400          4.1     5016.492    910804.76   -1281263.2    334670.92   -946592.33    4904614.2 
   16500        4.125    5034.4428    911854.02   -1282431.8    335868.49   -946563.28    4889086.8 
   16600         4.15    5044.7409    914530.76     -1283125    336555.52   -946569.52    4873559.5 
   16700        4.175    5061.1883    918033.27   -1284259.8    337652.79   -946606.97    4858032.1 
   16800          4.2    5049.2755    922125.37     -1283471    336858.04   -946612.97    4842504.8 
   16900        4.225    5044.2352    926704.94   -1283092.6    336521.79   -946570.82    4826977.4 
   17000         4.25    5009.0853    931620.95     -1280723    334176.79   -946546.18    4811450.1 
   17100        4.275    4976.8337    936369.39   -1278591.1    332025.15   -946565.96    4795922.7 
   17200          4.3    4931.7611    941393.37   -1275606.9    329018.17   -946588.69    4780395.4 
   17300        4.325    4876.6517    946389.57     -1271924     325341.6   -946582.45      4764868 
   17400         4.35    4799.1399    953103.34   -1266752.3    320170.46   -946581.84    4749340.6 
   17500        4.375    4709.4917    960742.86   -1260784.3    314189.66   -946594.66    4733813.3 
   17600          4.4    4617.7737    968634.46   -1254654.3    308070.77   -946583.49    4718285.9 
   17700        4.425    4513.3528    977873.34   -1247660.1    301104.42   -946555.68    4702758.6 
   17800         4.45    4422.9006    986665.19   -1241595.6    295069.98   -946525.59    4687231.2 
   17900        4.475    4309.6391    994872.17   -1234028.7    287513.84   -946514.91    4671703.9 
   18000          4.5    4205.4826    1004642.3   -1227094.5    280565.13   -946529.34    4656176.5 
   18100        4.525    4098.9054    1014358.6   -1220002.6    273454.92   -946547.69    4640649.2 
   18200         4.55    3985.3639    1023408.3   -1212427.9     265880.1   -946547.76    4625121.8 
   18300        4.575    3876.6085    1033216.7   -1205165.8    258624.58   -946541.19    4609594.5 
   18400          4.6    3761.2178    1043104.8   -1197481.5    250926.39   -946555.16    4594067.1 
   18500        4.625    3649.7073    1053292.9   -1190060.8    243487.06   -946573.77    4578539.8 
   18600         4.65    3542.4757      1064504   -1182895.2     236333.2   -946562.01    4563012.4 
   18700        4.675    3438.0603      1076173   -1175890.4    229367.22   -946523.22    4547485.1 
   18800          4.7    3329.5832    1088023.5   -1168592.2    222130.26   -946461.92    4531957.7 
   18900        4.725     3228.618    1100842.7   -1161798.7    215394.45   -946404.28    4516430.4 
   19000         4.75    3122.7599    1114548.5   -1153965.2    208332.23   -945633.01      4500903 
   19100        4.775    3148.4211    1132404.8   -1145118.3    210044.18   -935074.11    4485375.7 
   19200          4.8    3233.3133    1151120.1     -1136419     215707.7   -920711.27    4469848.3 
   19300        4.825    3273.0746    1170047.3   -1127294.9    218360.34    -908934.6      4454321 
   19400         4.85    3156.9183    1193492.1   -1107868.1    210611.07   -897257.07    4438793.6 
   19500        4.875    3056.2927    1214589.3   -1090196.6    203897.92    -886298.7    4423266.3 
   19600          4.9    3086.1272    1234088.8   -1075018.3     205888.3   -869130.04    4407738.9 
   19700        4.925    3189.6087    1254046.7   -1058659.3    212791.98    -845867.3    4392211.6 
   19800         4.95    3375.9778    1274007.6   -1044131.6    225225.44   -818906.15    4376684.2 
   19900        4.975    3480.6564    1292717.6   -1027937.3    232208.98   -795728.28    4361156.9 
   20000            5    3572.1327    1311072.1   -1012888.2    238311.74    -774576.5    4345629.5 
   20100        5.025    3707.3462    1328363.6   -996810.39    247332.39      -749478    4330102.2 
   20200         5.05    3871.6352    1345952.8   -981475.08    258292.79   -723182.29    4314574.8 
   20300        5.075    3994.7865    1362992.6   -965271.88    266508.72   -698763.15    4299047.5 
   20400          5.1    4145.3116      1379840   -950192.78    276550.87    -673641.9    4283520.1 
   20500        5.125    4352.4053    1396168.1   -934997.56    290366.95   -644630.61    4267992.8 
   20600         5.15    4572.5233    1412495.5   -919659.77    305051.93   -614607.84    4252465.4 
   20700        5.175    4742.4861    1430965.2   -902495.02    316390.85   -586104.17      4236938 
   20800          5.2    4898.7057    1456432.9   -881900.71    326812.91    -555087.8    4221410.7 
   20900        5.225    5051.0333    1485024.3   -859035.44    336975.31   -522060.13    4205883.3 
   21000         5.25    5178.4453    1511212.3   -835446.36    345475.49   -489970.86      4190356 
   21100        5.275    5321.6633      1540946   -812438.13    355030.16   -457407.97    4174828.6 
   21200          5.3    5463.7105    1569570.6   -788478.92    364506.72   -423972.21    4159301.3 
   21300        5.325     5572.029    1598980.8   -763890.64    371733.09   -392157.55    4143773.9 
   21400         5.35    5701.8808    1632965.2   -739481.33    380396.04   -359085.29    4128246.6 
   21500        5.375    5910.5659    1669616.9    -715659.6    394318.28   -321341.32    4112719.2 
   21600          5.4    6235.7736    1707775.1   -691346.44    416014.23   -275332.21    4097191.9 
   21700        5.425    6655.7412      1746683   -666910.16    444032.01   -222878.15    4081664.5 
   21800         5.45    7036.7736    1784595.4   -643345.91    469452.26   -173893.65    4066137.2 
   21900        5.475    7408.9973    1821767.9   -620187.61    494284.84   -125902.77    4050609.8 
   22000          5.5     7817.651    1856649.4   -598798.24    521547.82   -77250.418    4035082.5 
   22100        5.525    8228.8746    1886778.2   -579900.03    548982.24   -30917.793    4019555.1 
   22200         5.55    8597.7798    1914732.9   -559684.04    573593.43    13909.395    4004027.8 
   22300        5.575    8964.5969    1943300.8   -539637.15    598065.31    58428.168    3988500.4 
   22400          5.6    9322.5623    1972244.1   -519558.14    621946.67    102388.53    3972973.1 
   22500        5.625    9677.8782    2001048.9   -500157.27    645651.26    145493.99    3957445.7 
   22600         5.65    10003.252    2028569.7   -479467.03    667358.27    187891.24    3941918.4 
   22700        5.675    10325.526    2056739.8   -459312.76    688858.54    229545.78      3926391 
   22800          5.7    10609.276    2087344.5   -437075.06    707788.64    270713.58    3910863.7 
   22900        5.725    10893.655    2120464.7   -414564.11    726760.74    312196.63    3895336.3 
   23000         5.75    11160.145    2157092.1   -390804.69    744539.41    353734.72      3879809 
   23100        5.775    11377.484    2198983.4   -364495.78    759039.02    394543.24    3864281.6 
   23200          5.8    11552.116    2244786.1   -336483.26    770689.41    434206.16    3848754.3 
   23300        5.825    11694.146      2288266   -308365.24    780164.84    471799.61    3833226.9 
   23400         5.85    11812.133    2330449.8   -280082.65    788036.25    507953.59    3817699.6 
   23500        5.875    11890.857    2374331.8   -251948.01     793288.2    541340.19    3802172.2 
   23600          5.9     11938.08    2418194.9    -223485.9    796438.67    572952.78    3786644.9 
   23700        5.925    11966.244    2461235.3   -195608.95    798317.59    602708.64    3771117.5 
   23800         5.95    11983.949    2504458.4    -168507.8    799498.76    630990.97    3755590.2 
   23900        5.975    12008.858    2546610.1   -142761.12    801160.56    658399.44    3740062.8 
   24000            6    12046.362    2587054.6   -118025.71    803662.64    685636.93    3724535.4 
   24100        6.025    12118.058    2627404.1   -94459.851    808445.74    713985.89    3709008.1 
   24200         6.05    12231.026    2666531.2   -71985.704    815982.29    743996.59    3693480.7 
   24300        6.075     12376.68    2704507.5   -50682.041    825699.47    775017.43    3677953.4 
   24400          6.1    12608.699    2738539.8   -34203.594    841178.41    806974.82      3662426 
   24500        6.125     12889.32    2766438.8   -20474.164    859899.85    839425.68    3646898.7 
   24600         6.15    13207.346    2789302.6   -8941.4321    881116.65    872175.21    3631371.3 
   24700        6.175    13520.319    2813125.6    3165.0251    901996.34    905161.37      3615844 
   24800          6.2     13805.64    2836481.8    16380.666    921031.34       937412    3600316.6 
   24900        6.225    14076.863    2859708.1      29888.2    939125.75    969013.95    3584789.3 
   25000         6.25    14374.487    2882423.5    41387.488    958981.42    1000368.9    3569261.9 
   25100        6.275    14696.479    2905623.4    51594.326    980462.89    1032057.2    3553734.6 
   25200          6.3    15025.582    2930226.4    61594.236    1002418.7    1064012.9    3538207.2 
   25300        6.325    15395.144    2957996.4    70629.441    1027073.7    1097703.1    3522679.9 
   25400         6.35    15746.815    2990068.6    83344.621    1050535.1    1133879.8    3507152.5 
   25500        6.375    16134.081    3027622.5    96966.662    1076371.2    1173337.9    3491625.2 
   25600          6.4    16525.438    3070692.6    112568.79    1102480.3    1215049.1    3476097.8 
   25700        6.425    16863.804    3116340.6    131880.77      1125054    1256934.8    3460570.5 
   25800         6.45    17171.604    3162737.9    153938.24    1145588.7    1299526.9    3445043.1 
   25900        6.475    17441.855    3211575.9    178832.25    1163618.2    1342450.5    3429515.8 
   26000          6.5    17705.081    3260421.2    205066.77    1181179.2    1386245.9    3413988.4 
   26100        6.525    17949.722    3309931.6    232703.57    1197500.2    1430203.7    3398461.1 
   26200         6.55    18183.303      3361701    261387.33    1213083.3    1474470.6    3382933.7 
   26300        6.575    18386.792    3415359.6    292251.42    1226658.9    1518910.3    3367406.4 
   26400          6.6    18559.432    3471874.3    325020.88    1238176.4    1563197.3      3351879 
   26500        6.625     18745.99    3531181.8    357040.54    1250622.5      1607663    3336351.7 
   26600         6.65    18936.478    3593217.1    389021.51    1263330.7    1652352.2    3320824.3 
   26700        6.675     19144.59    3654696.9    419241.73    1277214.7    1696456.5      3305297 
   26800          6.7    19368.583    3714022.3    448080.64    1292158.2    1740238.9    3289769.6 
   26900        6.725    19611.011    3771380.8    474746.01    1308331.6    1783077.6    3274242.3 
   27000         6.75    19878.225    3826493.3    498571.49    1326158.5      1824730    3258714.9 
   27100        6.775    20167.443    3877002.6    520145.55    1345453.5    1865599.1    3243187.6 
   27200          6.8    20477.613    3924859.8    539213.43    1366146.2    1905359.6    3227660.2 
   27300        6.825    20830.501      3971902    555202.09    1389688.8    1944890.9    3212132.9 
   27400         6.85    21207.857    4015440.1    568540.69    1414863.8    1983404.5    3196605.5 
   27500        6.875    21604.527    4055382.2    579359.34    1441327.3    2020686.6    3181078.1 
   27600          6.9    22037.722      4091012    587194.77    1470227.5    2057422.3    3165550.8 
   27700        6.925    22443.138    4126159.3    595724.92    1497274.5    2092999.4    3150023.4 
   27800         6.95    22563.476    4173853.9    621830.76    1505302.8    2127133.5    3134496.1 
   27900        6.975    22403.968    4239953.6    665487.69    1494661.3      2160149    3118968.7 
   28000            7    22172.062    4311282.3    713873.83    1479189.9    2193063.7    3103441.4 
   28100        7.025    21864.825    4385461.7     765901.6    1458692.9    2224594.5      3087914 
   28200         7.05    21471.229    4471168.7    823184.89    1432434.4    2255619.3    3072386.7 
   28300        7.075     21032.11    4568854.9    883063.79      1403139    2286202.8    3056859.3 
   28400          7.1    20536.815    4669793.5    946077.92    1370095.8    2316173.7      3041332 
   28500        7.125    20016.642    4770508.2    1011058.6      1335393    2346451.5    3025804.6 
   28600         7.15    19468.789    4873986.3    1077392.1    1298843.4    2376235.5    3010277.3 
   28700        7.175    18936.698    4973700.2    1142232.6    1263345.4    2405577.9    2994749.9 
   28800          7.2    18448.115    5067162.1    1203856.2      1230750    2434606.2    2979222.6 
   28900        7.225    18061.276    5156071.2    1257725.9    1204942.4    2462668.3    2963695.2 
   29000         7.25    17834.791    5234397.1    1300665.6    1189832.7    2490498.2    2948167.9 
   29100        7.275    17754.518    5301586.5    1333893.3    1184477.3    2518370.6    2932640.5 
   29200          7.3    17714.455    5364126.1    1365563.2    1181804.5    2547367.7    2917113.2 
   29300        7.325    17632.094    5434429.3    1401941.9    1176309.9    2578251.8    2901585.8 
   29400         7.35    17545.881    5512366.4    1441061.7    1170558.3    2611619.9    2886058.5 
   29500        7.375    17360.319    5597895.7    1490118.2    1158178.7    2648296.9    2870531.1 
   29600          7.4    17085.694    5703831.7    1546182.9    1139857.3    2686040.2    2855003.8 
   29700        7.425    16667.057    5830396.2    1612453.3    1111928.2    2724381.5    2839476.4 
   29800         7.45     16080.08    5953018.6    1690887.4    1072768.6      2763656    2823949.1 
   29900        7.475    15465.989    6086267.8    1771123.6    1031800.1    2802923.7    2808421.7 
   30000          7.5     14872.74    6219153.1      1850513    992221.96      2842735    2792894.4 
   30100        7.525    14352.962    6346951.8    1925517.2    957545.44    2883062.6      2777367 
   30200         7.55    14003.274    6467877.9    1989106.8    934216.31    2923323.1    2761839.7 
   30300        7.575     13863.28    6571637.8    2038818.7     924876.7    2963695.4    2746312.3 
   30400          7.6    13917.863    6656791.8    2076579.4    928518.17    3005097.6      2730785 
   30500        7.625    14065.815    6732866.6    2107192.8    938388.67    3045581.4    2715257.6 
   30600         7.65    14255.316    6815612.2    2134937.6    951031.07    3085968.7    2699730.3 
   30700        7.675    14442.031    6900039.2    2163318.2    963487.61    3126805.8    2684202.9 
   30800          7.7     14505.55    6997968.9    2200627.3    967725.21    3168352.5    2668675.5 
   30900        7.725    14394.411    7124145.7    2249025.9    960310.65    3209336.5    2653148.2 
   31000         7.75    14105.298    7261129.2    2309894.7    941022.76    3250917.5    2637620.8 
   31100        7.775    13634.547    7404451.2      2383749    909617.01      3293366    2622093.5 
   31200          7.8    13115.715    7554368.4    2460059.6    875003.54    3335063.1    2606566.1 
   31300        7.825    12601.427    7704747.5      2535691    840693.31    3376384.3    2591038.8 
   31400         7.85    12151.602    7846553.2    2606887.5    810683.59    3417571.1    2575511.4 
   31500        7.875    11824.094    7984265.5    2669846.8    788834.16    3458680.9    2559984.1 
   31600          7.9    11632.483    8106332.3      2723059    776051.01      3499110    2544456.7 
   31700        7.925    11486.511    8217873.8    2773522.6    766312.62    3539835.2    2528929.4 
   31800         7.95    11416.557    8334916.2    2818718.9    761645.74    3580364.7      2513402 
   31900        7.975    11322.054    8462966.1    2866964.9    755341.04    3622305.9    2497874.7 
   32000            8    11334.558    8607047.8    2919354.7    756175.24    3675529.9    2482347.3 
   32100        8.025     11761.08    8800568.7    2990011.5    784630.24    3774641.7      2466820 
   32200         8.05    11934.806    9031138.2      3096704    796220.24    3892924.2    2451292.6 
   32300        8.075    11860.518    9268220.4    3220905.4    791264.16    4012169.5    2435765.3 
   32400          8.1    12220.768    9537942.4      3349612    815297.93      4164910    2420237.9 
   32500        8.125    12549.227    9808717.4    3480866.5    837210.79    4318077.3    2404710.6 
   32600         8.15    13073.336     10068932    3602722.8    872176.27    4474899.1    2389183.2 
   32700        8.175    13859.453     10330091    3719449.8     924621.4    4644071.2    2373655.9 
   32800          8.2    14768.923     10588368    3825662.8    985295.89    4810958.7    2358128.5 
   32900        8.225    15906.385     10855399    3919000.9    1061180.7    4980181.6    2342601.2 
   33000         8.25    16958.157     11109701    4011747.7    1131348.7    5143096.4    2327073.8 
   33100        8.275    17729.687     11368034      4116778    1182820.7    5299598.7    2311546.5 
   33200          8.3    18249.821     11638689    4235249.2      1217521    5452770.2    2296019.1 
   33300        8.325    18577.962     11922917    4360659.4    1239412.6      5600072    2280491.8 
   33400         8.35    18654.547     12215344    4498649.3    1244521.9    5743171.2    2264964.4 
   33500        8.375    18620.053     12508510    4639519.3    1242220.7    5881740.1    2249437.1 
   33600          8.4    18684.247     12813603    4773695.2    1246503.4    6020198.6    2233909.7 
   33700        8.425    18996.213     13110711    4891361.4    1267315.9    6158677.3    2218382.4 
   33800         8.45    19624.746     13387150    4990346.3      1309248    6299594.3      2202855 
   33900        8.475    20604.497     13655663    5073469.3    1374611.2    6448080.4    2187327.7 
   34000          8.5    21840.405     13922815    5149363.6    1457063.7    6606427.3    2171800.3 
   34100        8.525    23269.382     14200828    5227156.4    1552396.7    6779553.1    2156272.9 
   34200         8.55    24536.218     14512295    5327252.4    1636912.5    6964164.9    2140745.6 
   34300        8.575    25656.887     14842002      5444820      1711677      7156497    2125218.2 
   34400          8.6    26699.199     15197627    5569601.9    1781213.9    7350815.9    2109690.9 
   34500        8.625    27694.379     15569653    5698079.1    1847606.5    7545685.6    2094163.5 
   34600         8.65    28674.598     15930635      5825994      1913001      7738995    2078636.2 
   34700        8.675    29639.917     16285531    5950310.3    1977401.4    7927711.7    2063108.8 
   34800          8.7    30566.337     16651564      6070570    2039206.7    8109776.7    2047581.5 
   34900        8.725    31070.139     17032560    6210139.1    2072817.4    8282956.5    2032054.1 
   35000         8.75    31023.274     17426894    6376747.1    2069690.9      8446438    2016526.8 
   35100        8.775    30516.502     17817291    6563520.9      2035882    8599402.9    2000999.4 
   35200          8.8    29636.351     18235945    6764559.9    1977163.5    8741723.4    1985472.1 
   35300        8.825     28469.58     18639698    6976204.6    1899323.4    8875527.9    1969944.7 
   35400         8.85    27213.052     19026250    7186563.7    1815495.2    9002058.9    1954417.4 
   35500        8.875    26022.958     19458123      7387373    1736099.1    9123472.1      1938890 
   35600          8.9    24823.731     19898510    7585561.2    1656093.7      9241655    1923362.7 
   35700        8.925    23541.166     20312348    7790197.3    1570528.5    9360725.8    1907835.3 
   35800         8.95    22095.872     20738155    8011528.8    1474106.9    9485635.7      1892308 
   35900        8.975     20930.49     21152677    8235761.5    1396359.5      9632121    1876780.6 
   36000            9    20081.865     21566032    8453112.8    1339744.2      9792857    1861253.3 
   36100        9.025    19481.556     22054009    8649397.8    1299695.1    9949092.9    1845725.9 
   36200         9.05     19275.25     22549614    8818348.1    1285931.6     10104280    1830198.6 
   36300        9.075    19432.538     23023290      8967523      1296425     10263948    1814671.2 
   36400          9.1    19580.992     23520418    9122367.1    1306328.9     10428696    1799143.9 
   36500        9.125    19362.415     24003482    9305182.9    1291746.7     10596930    1783616.5 
   36600         9.15    18826.202     24516800    9511149.2    1255973.8     10767123    1768089.2 
   36700        9.175     18083.63     25094160    9729588.2    1206433.7     10936022    1752561.8 
   36800          9.2    17564.225     25669301    9945518.9      1171782     11117301    1737034.5 
   36900        9.225    17608.788     26226174     10163908      1174755     11338663    1721507.1 
   37000         9.25    18156.115     26810409     10407506    1211269.5     11618775    1705979.8 
   37100        9.275     18914.62     27451613     10686081    1261872.5     11947953    1690452.4 
   37200          9.3    19505.796     28181204     10998254    1301312.3     12299566    1674925.1 
   37300        9.325    20232.253     28952723     11326334    1349777.3     12676111    1659397.7 
   37400         9.35     21443.76     29719565     11648597    1430601.9     13079199    1643870.4 
   37500        9.375    22893.559     30454914     11955004      1527324     13482328      1628343 
   37600          9.4    23903.915     31188009     12277265      1594729     13871994    1612815.6 
   37700        9.425     24613.55     32004584     12614552    1642071.7     14256624    1597288.3 
   37800         9.45    24950.376     32847317     12959729    1664542.7     14624271    1581760.9 
   37900        9.475    25377.331     33693636     13283203    1693026.6     14976230    1566233.6 
   38000          9.5    26542.424     34456278     13559657    1770754.8     15330412    1550706.2 
   38100        9.525    28590.315     35222237     13799103    1907378.1     15706481    1535178.9 
   38200         9.55      31006.2     36097181     14047818    2068551.7     16116370    1519651.5 
   38300        9.575    33246.286     37051994     14332504    2217997.2     16550501    1504124.2 
   38400          9.6    35389.188     38047938     14639924      2360959     17000883    1488596.8 
   38500        9.625    37347.242     38975587     14959615    2491588.9     17451204    1473069.5 
   38600         9.65    38648.306     39933845     15313062    2578388.3     17891450    1457542.1 
   38700        9.675    38874.906     40975038     15709612    2593505.7     18303117    1442014.8 
   38800          9.7    37996.412     42030328     16148391    2534897.7     18683289    1426487.4 
   38900        9.725     36375.98     42985805     16605233      2426792     19032025    1410960.1 
   39000         9.75    34519.185     43971630     17058674    2302917.5     19361592    1395432.7 
   39100        9.775    32330.927     45045958     17520886    2156929.8     19677816    1379905.4 
   39200          9.8    29681.143     46106115     18012091    1980151.8     19992243      1364378 
   39300        9.825    27118.887     47136124     18506656      1809213     20315869    1348850.7 
   39400         9.85     25575.31     48251402     18958745    1706234.6     20664979    1333323.3 
   39500        9.875    25311.629     49443721     19348984    1688643.4     21037628      1317796 
   39600          9.9    25583.152     50644691     19707009    1706757.9     21413767    1302268.6 
   39700        9.925    25477.326     51836527     20099234    1699697.7     21798932    1286741.3 
   39800         9.95    25170.061     53171657     20539209    1679198.8     22218408    1271213.9 
   39900        9.975    25144.424     54573043     21041400    1677488.4     22718888    1255686.6 
   40000           10    25536.286     56057102     21598810    1703631.2     23302441    1240159.2 
   40100       10.025    26574.026     57690541     22203044    1772863.1     23975907    1224631.9 
   40200        10.05    28279.959     59414725     22833319      1886673     24719992    1209104.5 
   40300       10.075    30446.887     61202462     23462940    2031237.7     25494177    1193577.2 
   40400         10.1    31996.594     63031920     24117543      2134625     26252168    1178049.8 
   40500       10.125    32647.192     64877528     24799568    2178029.1     26977597    1162522.5 
   40600        10.15    33740.529     66760155     25420305    2250970.2     27671276    1146995.1 
   40700       10.175    36500.351     68662695     25947993    2435089.3     28383082    1131467.8 
   40800         10.2    40360.611     70667581     26469522    2692623.2     29162145    1115940.4 
   40900       10.225    44263.847     72764975     27033618    2953024.2     29986642      1100413 
   41000        10.25    47154.259     74976547     27672225    3145855.6     30818081    1084885.7 
   41100       10.275    47172.037     77308902     28458352    3147041.6     31605394    1069358.3 
   41200         10.3     45500.85     79643807     29287852    3035549.8     32323402      1053831 
   41300       10.325    43367.583     82020001     30092895    2893230.8     32986126    1038303.6 
   41400        10.35    39425.641     84501467     30996316    2630247.5     33626564    1022776.3 
   41500       10.375    35759.052     87019899     31881163    2385634.2     34266797    1007248.9 
   41600         10.4    33966.284     89628797     32657413    2266031.2     34923444    991721.59 
   41700       10.425    33348.565     92271330     33393421    2224820.7     35618242    976194.24 
   41800        10.45     34208.24     95117979     34113905    2282173.1     36396078    960666.88 
   41900       10.475    34859.738     98379378     35018317    2325637.2     37343954    945139.53 
   42000         10.5    35570.681 1.0204576e+08     36092932    2373067.2     38465999    929612.18 
   42100       10.525     39208.15 1.0605621e+08     37152542    2615737.8     39768280    914084.83 
   42200        10.55    40702.837 1.1018312e+08     38305331    2715454.5     41020786    898557.48 
   42300       10.575    42443.754 1.1445075e+08     39450491    2831598.3     42282090    883030.13 
   42400         10.6    46583.858 1.1875637e+08     40436910    3107801.7     43544712    867502.78 
   42500       10.625    51998.204 1.2328318e+08     41425261    3469015.2     44894276    851975.42 
   42600        10.65    57111.842 1.2807479e+08     42456175    3810167.1     46266342    836448.07 
   42700       10.675    56193.388 1.3320361e+08     43823378    3748893.2     47572271    820920.72 
   42800         10.7    53984.824 1.3842589e+08     45178056    3601550.8     48779607    805393.37 
   42900       10.725    48382.614 1.4396678e+08     46694875    3227804.2     49922679    789866.02 
   43000        10.75    45663.559 1.4958528e+08     48029729    3046404.8     51076134    774338.67 
   43100       10.775    44287.241 1.5545228e+08     49333167    2954584.9     52287752    758811.32 
   43200         10.8    46935.449 1.6209737e+08     50683284    3131257.9     53814542    743283.96 
   43300       10.825    47757.713 1.6978616e+08     52463063    3186114.5     55649177    727756.61 
   43400        10.85    52443.543 1.7819764e+08     54220623    3498725.5     57719348    712229.26 
   43500       10.875    54807.803 1.8685793e+08     56059368    3656455.1     59715823    696701.91 
   43600         10.9    62331.105 1.9584754e+08     57674477    4158365.7     61832842    681174.56 
   43700       10.925    68558.789 2.0538978e+08     59397141    4573840.2     63970982    665647.21 
   43800        10.95    66436.039 2.156054e+08     61568585    4432222.8     66000807    650119.86 
   43900       10.975    61964.557 2.2629728e+08     63790976    4133911.7     67924888     634592.5 
   44000           11    58860.642 2.3730807e+08     65912567    3926836.7     69839404    619065.15 
   44100       11.025      59882.5 2.4955479e+08     68038939    3995009.1     72033948     603537.8 
   44200        11.05    62272.502 2.6402218e+08     70643760      4154456     74798216    588010.45 
   44300       11.075    67996.427 2.8009574e+08     73372832    4536322.7     77909155     572483.1 
   44400         11.1    76317.776 2.9673216e+08     75942468    5091474.3     81033943    556955.75 
   44500       11.125    82303.452 3.1475559e+08     78731917    5490803.5     84222720    541428.39 
   44600        11.15    78769.315 3.3444419e+08     82010095    5255026.6     87265122    525901.04 
   44700       11.175    75269.065 3.5524723e+08     85235844    5021510.5     90257355    510373.69 
   44800         11.2    78016.274 3.7883578e+08     88612475    5204788.1     93817263    494846.34 
   44900       11.225     84958.59 4.0617171e+08     92539638    5667938.7     98207577    479318.99 
   45000        11.25    96343.558 4.3505785e+08     96290376      6427477 1.0271785e+08    463791.64 
   45100       11.275    101064.46 4.6655748e+08 1.0050834e+08    6742428.2 1.0725077e+08    448264.29 
   45200         11.3    100188.86 5.0042318e+08 1.0497993e+08    6684012.9 1.1166394e+08    432736.93 
   45300       11.325    106491.11 5.3826742e+08 1.0958082e+08    7104462.2 1.1668529e+08    417209.58 
   45400        11.35    119471.96 5.8213328e+08  1.14742e+08    7970468.2 1.2271247e+08    401682.23 
   45500       11.375    132120.49 6.2917996e+08 1.2004981e+08    8814304.3 1.2886411e+08    386154.88 
   45600         11.4    135478.39 6.8116004e+08 1.2599424e+08    9038323.8 1.3503256e+08    370627.53 
   45700       11.425    144599.17 7.4028459e+08 1.3232225e+08    9646808.3 1.4196906e+08    355100.18 
   45800        11.45    158837.69 8.0859582e+08 1.3929455e+08     10596719 1.4989126e+08    339572.83 
   45900       11.475    166757.95 8.860009e+08 1.4694717e+08     11125112 1.5807228e+08    324045.47 
   46000         11.5    175928.54 9.7560456e+08 1.5527588e+08     11736920 1.670128e+08    308518.12 
   46100       11.525    191296.35 1.0809391e+09 1.645398e+08     12762170 1.7730197e+08    292990.77 
   46200        11.55    201518.54 1.2031397e+09 1.7480878e+08     13444135 1.8825292e+08    277463.42 
   46300       11.575    215989.75 1.3494929e+09 1.8633011e+08     14409569 2.0073968e+08    261936.07 
   46400         11.6    231921.24 1.5234969e+09 1.9927548e+08     15472425 2.147479e+08    246408.72 
   46500       11.625    248465.47 1.7338331e+09 2.1396434e+08     16576158 2.305405e+08    230881.37 
   46600        11.65    267719.64 1.9910027e+09 2.3077558e+08     17860684 2.4863626e+08    215354.01 
   46700       11.675    290328.83 2.3112151e+09 2.5021748e+08     19369036 2.6958651e+08    199826.66 
   46800         11.7    313603.37 2.7152562e+09 2.7300581e+08     20921777 2.9392759e+08    184299.31 
   46900       11.725    341945.27 3.2377064e+09 3.0005024e+08     22812583 3.2286283e+08    168771.96 
   47000        11.75    375671.87 3.9258481e+09 3.3259032e+08     25062624 3.5765295e+08    153244.61 
ERROR: Lost atoms: original 516124 current 516120 (../thermo.cpp:439)
Last command: run 50000
