LAMMPS (29 Sep 2021)
  using 1 OpenMP thread(s) per MPI task
Reading data file ...
  orthogonal box = (0.59641575 0.60318742 0.0000000) to (99.923675 99.916903 535.86400)
  3 by 2 by 16 MPI processor grid
  reading atoms ...
  444900 atoms
  reading velocities ...
  444900 velocities
  read_data CPU = 4.618 seconds
222450 atoms in group g_left
222450 atoms in group g_right

CITE-CITE-CITE-CITE-CITE-CITE-CITE-CITE-CITE-CITE-CITE-CITE-CITE

Your simulation uses code contributions which should be cited:
- @article{cjiang2012
The log file lists these citations in BibTeX format.

CITE-CITE-CITE-CITE-CITE-CITE-CITE-CITE-CITE-CITE-CITE-CITE-CITE

Neighbor list info ...
  update every 1 steps, delay 10 steps, check yes
  max neighbors/atom: 2000, page size: 100000
  master list distance cutoff = 8.28721
  ghost atom cutoff = 8.28721
  binsize = 4.143605, bins = 24 24 130
  3 neighbor lists, perpetual/occasional/extra = 3 0 0
  (1) pair eam/alloy, perpetual, skip from (3)
      attributes: half, newton on
      pair build: skip
      stencil: none
      bin: none
  (2) pair edip/multi, perpetual
      attributes: full, newton on
      pair build: full/bin/atomonly
      stencil: full/bin/3d
      bin: standard
  (3) neighbor class addition, perpetual, half/full from (2)
      attributes: half, newton on
      pair build: halffull/newton
      stencil: none
      bin: none
Setting up Verlet run ...
  Unit style    : metal
  Current step  : 0
  Time step     : 0.00025
Per MPI rank memory allocation (min/avg/max) = 10.31 | 12.50 | 16.39 Mbytes
Step Time Temp Press PotEng KinEng TotEng Volume 
       0            0    16461.015    187922.06   -2213729.8    946635.24   -1267094.6    5286062.1 
     100        0.025    16458.792    188818.86   -2213734.2     946507.4   -1267226.8    5271265.3 
     200         0.05     16459.04     189150.4   -2213758.4    946521.69   -1267236.7    5256468.4 
     300        0.075    16459.215     189339.9   -2213722.8    946531.73   -1267191.1    5241671.6 
     400          0.1    16459.326    189381.13   -2213755.9    946538.16   -1267217.7    5226874.8 
     500        0.125    16458.077    190636.11   -2213766.6    946466.28   -1267300.3    5212077.9 
     600         0.15     16457.09    190824.86   -2213741.9    946409.55   -1267332.4    5197281.1 
     700        0.175    16457.437    191813.37   -2213727.9    946429.51   -1267298.4    5182484.2 
     800          0.2    16458.017    191939.89   -2213743.7    946462.84   -1267280.9    5167687.4 
     900        0.225    16457.633     192391.3   -2213756.5    946440.75   -1267315.8    5152890.6 
    1000         0.25    16456.631    193301.39   -2213738.7    946383.14   -1267355.5    5138093.7 
    1100        0.275    16456.515    193825.97   -2213744.5    946376.45   -1267368.1    5123296.9 
    1200          0.3    16456.145    194418.42   -2213732.9    946355.19   -1267377.8      5108500 
    1300        0.325    16455.928    194558.58   -2213747.3    946342.74   -1267404.6    5093703.2 
    1400         0.35    16455.303    195653.07     -2213741     946306.8   -1267434.2    5078906.4 
    1500        0.375    16456.181    195077.73   -2213795.1     946357.3   -1267437.8    5064109.5 
    1600          0.4    16471.282    196963.93   -2214650.3    947225.69   -1267424.6    5049312.7 
    1700        0.425    16421.302    198225.14     -2211763    944351.48   -1267411.5    5034515.8 
    1800         0.45    16285.835    203838.76   -2203960.7    936561.08   -1267399.7      5019719 
    1900        0.475    16111.914    214618.61     -2193963    926559.26   -1267403.8    5004922.2 
    2000          0.5    16018.151    224733.52   -2188584.6    921167.16   -1267417.5    4990125.3 
    2100        0.525    15826.528    232773.36   -2177551.4    910147.39     -1267404    4975328.5 
    2200         0.55    15736.023    244142.96   -2172296.8    904942.61   -1267354.2    4960531.7 
    2300        0.575    15534.177     253353.9   -2160644.9    893334.94     -1267310    4945734.8 
    2400          0.6    15447.206    263975.19   -2155640.7    888333.41   -1267307.3      4930938 
    2500        0.625    15248.025    272103.05   -2144215.4    876878.98   -1267336.4    4916141.1 
    2600         0.65    15149.736    282457.08   -2138575.6    871226.61     -1267349    4901344.3 
    2700        0.675    14962.572    291977.45   -2127795.6    860463.22   -1267332.4    4886547.5 
    2800          0.7    14867.579    300760.17   -2122337.4     855000.4   -1267336.9    4871750.6 
    2900        0.725    14675.774    310736.42   -2111335.4    843970.17   -1267365.2    4856953.8 
    3000         0.75    14573.347    320836.05   -2105447.1    838079.82   -1267367.2    4842156.9 
    3100        0.775    14387.655    330283.32   -2094728.4    827401.07   -1267327.4    4827360.1 
    3200          0.8    14417.452    333340.21   -2096411.3    829114.64   -1267296.7    4812563.3 
    3300        0.825    14485.092    329934.83   -2100300.1    833004.43   -1267295.7    4797766.4 
    3400         0.85    14405.652    327237.77   -2095733.5    828436.05   -1267297.5    4782969.6 
    3500        0.875    14359.209    324441.85   -2093067.9    825765.24   -1267302.6    4768172.8 
    3600          0.9    14400.822    323994.59   -2095503.3    828158.29     -1267345    4753375.9 
    3700        0.925    14352.545    326493.49   -2092795.4    825381.97   -1267413.4    4738579.1 
    3800         0.95    14358.562    327494.06   -2093162.7    825728.02   -1267434.7    4723782.2 
    3900        0.975    14334.978     325488.3   -2091753.7    824371.74   -1267381.9    4708985.4 
    4000            1    14302.708    324455.59   -2089837.2    822515.98   -1267321.2    4694188.6 
    4100        1.025    14274.984    324269.59     -2088233    820921.61   -1267311.4    4679391.7 
    4200         1.05     14230.09    325608.41   -2085672.4    818339.88   -1267332.5    4664594.9 
    4300        1.075     14138.45    329635.62   -2080406.7    813069.88   -1267336.8      4649798 
    4400          1.1    13984.121    340305.66   -2071509.4    804194.75   -1267314.6    4635001.2 
    4500        1.125    13790.142    342898.08   -2060334.4    793039.47   -1267294.9    4620204.4 
    4600         1.15    13619.862    352703.19     -2050534    783247.04     -1267287    4605407.5 
    4700        1.175    13452.961    366093.68   -2040899.1       773649   -1267250.1    4590610.7 
    4800          1.2    13287.893    374693.15   -2031330.6    764156.32   -1267174.3    4575813.9 
    4900        1.225     13096.49     383492.1   -2020259.4    753149.11   -1267110.3      4561017 
    5000         1.25    12937.116    396185.96   -2011071.5    743983.93   -1267087.6    4546220.2 
    5100        1.275    12770.488    408558.42   -2001498.4    734401.53   -1267096.9    4531423.3 
    5200          1.3     12609.28    419238.84   -1992227.8    725130.82     -1267097    4516626.5 
    5300        1.325    12471.072    431033.33   -1984262.1     717182.8   -1267079.3    4501829.7 
    5400         1.35    12346.425    441349.67   -1977083.6    710014.61     -1267069    4487032.8 
    5500        1.375    12237.889    451172.78   -1970842.4    703772.95   -1267069.5      4472236 
    5600          1.4    12143.167     462411.9   -1965404.8    698325.69   -1267079.1    4457439.1 
    5700        1.425    12052.244    472067.16   -1960179.8    693096.97   -1267082.9    4442642.3 
    5800         1.45    11973.908    482016.07   -1955665.7       688592   -1267073.7    4427845.5 
    5900        1.475     11895.22    492254.05   -1951115.7    684066.83   -1267048.9    4413048.6 
    6000          1.5    11819.213    502229.88     -1946704    679695.86   -1267008.1    4398251.8 
    6100        1.525    11736.578    512775.76   -1941916.5    674943.72   -1266972.8    4383454.9 
    6200         1.55     11661.08    522273.24   -1937561.9       670602   -1266959.9    4368658.1 
    6300        1.575    11579.187    532009.71   -1932855.5     665892.5   -1266962.9    4353861.3 
    6400          1.6    11482.501    541751.81   -1927303.8     660332.3   -1266971.5    4339064.4 
    6500        1.625    11357.535    552983.89   -1920129.6    653145.81   -1266983.8    4324267.6 
    6600         1.65    11214.027    565440.49   -1911880.3    644892.99   -1266987.3    4309470.8 
    6700        1.675    11063.633    578023.12   -1903223.8    636244.18   -1266979.7    4294673.9 
    6800          1.7     10897.19    591324.72   -1893657.8    626672.46   -1266985.3    4279877.1 
    6900        1.725    10722.726    604277.29   -1883654.8    616639.42   -1267015.4    4265080.2 
    7000         1.75    10548.152    616907.19     -1873643    606600.04     -1267043    4250283.4 
    7100        1.775    10378.518    630032.49   -1863870.2    596844.78   -1267025.4    4235486.6 
    7200          1.8     10212.34    642579.05   -1854254.4    587288.29   -1266966.1    4220689.7 
    7300        1.825    10119.704    650824.44   -1848883.3    581961.01   -1266922.3    4205892.9 
    7400         1.85    10134.896    650511.54     -1849764    582834.68   -1266929.3      4191096 
    7500        1.875    10010.798     652199.1   -1842647.3    575698.08   -1266949.2    4176299.2 
    7600          1.9    9959.3792    652010.69   -1839684.1    572741.08     -1266943    4161502.4 
    7700        1.925    9974.9381    652179.07   -1840566.3    573635.84   -1266930.5    4146705.5 
    7800         1.95    9896.5217    655996.73   -1836070.3    569126.29     -1266944    4131908.7 
    7900        1.975    9833.9459    658694.52   -1832504.3     565527.7   -1266976.6    4117111.9 
    8000            2    9831.3551    659173.69   -1832378.6    565378.71   -1266999.9      4102315 
    8100        2.025    9709.6293     662913.7   -1825391.3    558378.54   -1267012.8    4087518.2 
    8200         2.05    9618.6948    668526.12   -1820172.1     553149.1     -1267023    4072721.3 
    8300        2.075     9550.818    675472.37   -1816283.9    549245.67   -1267038.2    4057924.5 
    8400          2.1    9383.3727    689140.24   -1806664.6    539616.27   -1267048.3    4043127.7 
    8500        2.125     9206.832    717074.93   -1796510.7    529463.82   -1267046.9    4028330.8 
    8600         2.15    9053.3323    738321.77   -1787692.4     520636.4     -1267056      4013534 
    8700        2.175    8828.9558    753332.64   -1774826.2    507733.02   -1267093.1    3998737.1 
    8800          2.2    8679.3697     779084.1   -1766272.1    499130.67   -1267141.4    3983940.3 
    8900        2.225    8541.4055    806442.83   -1758369.3    491196.66   -1267172.6    3969143.5 
    9000         2.25    8429.0557     825208.9   -1751916.6    484735.68   -1267180.9    3954346.6 
    9100        2.275    8345.6475    840696.65   -1747115.8    479939.07   -1267176.7    3939549.8 
    9200          2.3    8285.1508    859496.97   -1743636.4    476460.04   -1267176.4    3924752.9 
    9300        2.325    8217.5865    879697.53     -1739767    472574.57   -1267192.4    3909956.1 
    9400         2.35    8141.6501    904294.59   -1735425.4    468207.65   -1267217.7    3895159.3 
    9500        2.375    8055.5491     924462.9     -1730505    463256.18   -1267248.8    3880362.4 
    9600          2.4    7980.5487    942587.29   -1726219.1    458943.07   -1267276.1    3865565.6 
    9700        2.425    7885.7567    958690.34   -1720786.9     453491.8   -1267295.1    3850768.8 
    9800         2.45    7803.5155    971561.36   -1716063.6     448762.3   -1267301.3    3835971.9 
    9900        2.475    7657.3455    987913.68   -1707645.6     440356.4   -1267289.2    3821175.1 
   10000          2.5    7440.6805    1005385.2   -1695157.4    427896.49   -1267260.9    3806378.2 
   10100        2.525    7245.6738    1019782.9   -1683915.7     416682.1   -1267233.6    3791581.4 
   10200         2.55    7040.0801    1034169.3   -1672089.5    404858.88   -1267230.6    3776784.6 
   10300        2.575    6844.4148    1047211.1   -1660853.1    393606.62   -1267246.5    3761987.7 
   10400          2.6    6677.4391    1056725.8   -1651258.5    384004.23   -1267254.3    3747190.9 
   10500        2.625    6510.1376    1064947.6   -1641615.5     374383.1   -1267232.4      3732394 
   10600         2.65    6359.2565    1072842.6   -1632911.3    365706.27     -1267205    3717597.2 
   10700        2.675    6211.3756      1079403   -1624408.4    357201.98   -1267206.4    3702800.4 
   10800          2.7    6076.2559    1093594.4   -1616667.7    349431.55   -1267236.1    3688003.5 
   10900        2.725    5942.8691    1110141.8   -1609016.3    341760.79   -1267255.5    3673206.7 
   11000         2.75    5821.3422    1131325.6   -1602008.8    334772.06   -1267236.7    3658409.9 
   11100        2.775    5720.1421    1152048.6   -1596162.9    328952.27   -1267210.7      3643613 
   11200          2.8    5622.3511    1169003.5   -1590540.3    323328.53   -1267211.7    3628816.2 
   11300        2.825    5522.7753    1188684.5   -1584820.9    317602.16   -1267218.8    3614019.3 
   11400         2.85     5435.017    1209556.1   -1579760.2    312555.38   -1267204.8    3599222.5 
   11500        2.875    5345.2853    1228337.9   -1574587.5    307395.11   -1267192.4    3584425.7 
   11600          2.9    5262.9478    1246879.4   -1569859.7    302660.07   -1267199.6    3569628.8 
   11700        2.925    5179.4605    1264618.7   -1565081.3    297858.91   -1267222.4      3554832 
   11800         2.95    5103.8488    1284503.2   -1560771.4    293510.65   -1267260.7    3540035.1 
   11900        2.975     5037.284    1297188.6   -1556979.4    289682.66   -1267296.8    3525238.3 
   12000            3    4986.3211    1313818.3   -1554056.2    286751.91   -1267304.2    3510441.5 
   12100        3.025     4942.361    1323297.4   -1551496.3    284223.86   -1267272.5    3495644.6 
   12200         3.05    4894.3595    1336405.2   -1548697.1    281463.41   -1267233.7    3480847.8 
   12300        3.075    4856.3466    1347183.5   -1546503.2    279277.37   -1267225.8    3466050.9 
   12400          3.1    4822.9729    1355128.2     -1544588    277358.12   -1267229.9    3451254.1 
   12500        3.125    4782.8342    1366357.8     -1542258    275049.84   -1267208.1    3436457.3 
   12600         3.15    4749.9962    1377142.1     -1540331     273161.4   -1267169.6    3421660.4 
   12700        3.175    4703.2049    1386237.4   -1537614.3    270470.54   -1267143.8    3406863.6 
   12800          3.2     4652.429    1396490.5   -1534675.3    267550.53   -1267124.8    3392066.8 
   12900        3.225    4591.4847    1408927.8   -1531117.5    264045.77   -1267071.7    3377269.9 
   13000         3.25    4511.7651    1424686.7   -1526407.7    259461.28   -1266946.4    3362473.1 
   13100        3.275    4423.3482    1436495.8   -1521070.9    254376.62   -1266694.2    3347676.2 
   13200          3.3     4313.158    1458529.3   -1514212.5    248039.84   -1266172.7    3332879.4 
   13300        3.325     4205.487    1473420.5   -1506987.1    241847.92   -1265139.2    3318082.6 
   13400         3.35    4105.8547    1494502.9     -1499363     236118.3   -1263244.7    3303285.7 
   13500        3.375     4019.696    1514051.4   -1491363.3    231163.51   -1260199.8    3288488.9 
   13600          3.4    3946.1958    1531529.7   -1483014.7    226936.68   -1256078.1      3273692 
   13700        3.425    3859.9761    1558012.2   -1473114.2    221978.38   -1251135.8    3258895.2 
   13800         3.45    3782.8381    1583778.1   -1460250.6    217542.35   -1242708.2    3244098.4 
   13900        3.475    3836.3659    1621384.5   -1442215.1    220620.61   -1221594.4    3229301.5 
   14000          3.5    4048.8615    1657742.3   -1420141.1    232840.75   -1187300.4    3214504.7 
   14100        3.525    4282.0977      1699981     -1396296    246253.63   -1150042.4    3199707.9 
   14200         3.55    4458.2155    1739426.7   -1370760.2    256381.76   -1114378.5      3184911 
   14300        3.575    4645.6065    1779273.9   -1344365.3    267158.19   -1077207.1    3170114.2 
   14400          3.6    4864.5212      1826378   -1316390.8    279747.47   -1036643.3    3155317.3 
   14500        3.625     5089.878    1870029.5   -1287892.3    292707.22   -995185.08    3140520.5 
   14600         3.65    5316.7574    1917849.1   -1260380.2    305754.54   -954625.68    3125723.7 
   14700        3.675    5566.8974    1969135.7   -1232876.3    320139.52   -912736.74    3110926.8 
   14800          3.7    5883.0015    2020235.9   -1205762.1    338317.94   -867444.21      3096130 
   14900        3.725    6225.2949    2078310.8   -1178306.9    358002.45   -820304.44    3081333.1 
   15000         3.75    6538.6234    2156321.3     -1148531    376021.25   -772509.78    3066536.3 
   15100        3.775    6843.2815    2246819.7   -1118887.6    393541.44   -725346.18    3051739.5 
   15200          3.8    7100.7771    2336335.8   -1089705.9    408349.42   -681356.48    3036942.6 
   15300        3.825    7313.3983    2412976.3     -1060873    420576.78    -640296.2    3022145.8 
   15400         3.85     7508.722    2491095.5   -1032930.2     431809.4   -601120.75      3007349 
   15500        3.875    7733.1988    2571814.2   -1006554.8    444718.55   -561836.21    2992552.1 
   15600          3.9    8019.6836    2650158.3   -981888.68    461193.63   -520695.05    2977755.3 
   15700        3.925    8396.8003    2721511.6   -957965.98    482880.75   -475085.23    2962958.4 
   15800         3.95    8864.3831    2791307.6   -934514.74    509770.36   -424744.38    2948161.6 
   15900        3.975    9425.3562    2851990.6   -912008.35    542030.64   -369977.71    2933364.8 
   16000            4     10053.79    2901430.1   -891085.04    578170.45   -312914.59    2918567.9 
   16100        4.025     10696.69    2950956.8   -871513.79    615142.11   -256371.68    2903771.1 
   16200         4.05    11328.316    2995756.9   -853232.41     651465.5   -201766.91    2888974.2 
   16300        4.075    12002.446    3029661.1   -837129.72    690233.19   -146896.53    2874177.4 
   16400          4.1    12712.394    3070870.4    -821552.6    731060.63   -90491.964    2859380.6 
   16500        4.125    13408.159    3113811.8   -805763.34    771072.52   -34690.818    2844583.7 
   16600         4.15    14011.536    3167592.6   -786997.93    805771.35    18773.424    2829786.9 
   16700        4.175    14552.895    3220841.2   -766925.58    836903.68    69978.099      2814990 
   16800          4.2    15000.988    3287550.1   -743028.08    862672.47    119644.39    2800193.2 
   16900        4.225    15356.119    3359474.8   -716386.69    883095.25    166708.56    2785396.4 
   17000         4.25    15659.359    3434936.4   -687974.03    900533.86    212559.83    2770599.5 
   17100        4.275    15916.265    3531852.5   -656975.13    915307.97    258332.84    2755802.7 
   17200          4.3    16139.575    3641713.8   -624777.37       928150    303372.62    2741005.9 
   17300        4.325    16318.285    3743587.9   -590520.19    938427.21    347907.03      2726209 
   17400         4.35    16455.014    3840451.1   -555322.47    946290.16    390967.69    2711412.2 
   17500        4.375    16563.174    3942032.9   -519092.69    952510.17    433417.48    2696615.3 
   17600          4.4    16647.749    4031690.9   -484391.53    957373.91    472982.37    2681818.5 
   17700        4.425    16706.782    4114320.4   -449363.41    960768.77    511405.36    2667021.7 
   17800         4.45    16792.742      4195534   -417771.11     965712.1       547941    2652224.8 
   17900        4.475    16845.089    4259440.3   -385788.52    968722.47    582933.96      2637428 
   18000          4.5    16922.922    4312440.8   -356334.35    973198.46    616864.11    2622631.1 
   18100        4.525    17014.764    4370899.2   -329216.34    978480.11    649263.77    2607834.3 
   18200         4.55    17144.571    4423603.9   -305370.77    985945.02    680574.25    2593037.5 
   18300        4.575    17292.712    4469326.1   -283007.97    994464.24    711456.26    2578240.6 
   18400          4.6    17488.416    4518397.5   -263734.93    1005718.7     741983.8    2563443.8 
   18500        4.625    17735.819    4578742.2   -245856.36    1019946.3    774089.98      2548647 
   18600         4.65    18032.792    4626922.2   -228213.85    1037024.6    808810.72    2533850.1 
   18700        4.675    18378.697    4689074.9   -210063.58    1056916.7    846853.16    2519053.3 
   18800          4.7    18801.496    4756246.7   -191265.76      1081231     889965.2    2504256.4 
   18900        4.725    19259.526      4833707    -169788.5    1107571.2     937782.7    2489459.6 
   19000         4.75    19760.944    4906975.2   -146500.35    1136406.6    989906.27    2474662.8 
   19100        4.775    20284.251    4998410.7   -122336.33    1166500.8    1044164.5    2459865.9 
   19200          4.8    20816.509    5079762.5   -96172.668    1197109.8    1100937.1    2445069.1 
   19300        4.825    21363.559    5164334.3   -69020.187    1228569.3    1159549.2    2430272.2 
   19400         4.85    21878.499    5270047.3   -39227.735    1258182.4    1218954.6    2415475.4 
   19500        4.875    22129.794      5379521     5748.243    1272633.7      1278382    2400678.6 
   19600          4.9     21971.84    5521363.6    74257.489    1263550.2    1337807.7    2385881.7 
   19700        4.925    21705.725    5687513.1    146638.47    1248246.5      1394885    2371084.9 
   19800         4.95    21385.319    5851138.5    221019.36    1229820.7    1450840.1      2356288 
   19900        4.975    21177.277    6003885.3    288334.66    1217856.7    1506191.4    2341491.2 
   20000            5    21113.096    6133485.3    346460.71    1214165.8    1560626.5    2326694.4 
   20100        5.025    21070.235    6265277.4    404182.71      1211701    1615883.7    2311897.5 
   20200         5.05    21024.865    6424049.5    463261.56    1209091.8    1672353.4    2297100.7 
   20300        5.075    20914.059    6573419.2    526223.03    1202719.6    1728942.6    2282303.9 
   20400          5.1    20810.497      6724832    589826.84      1196764    1786590.9      2267507 
   20500        5.125     20763.41    6874572.9    650227.83    1194056.1      1844284    2252710.2 
   20600         5.15    20812.319      7032411    704803.75    1196868.8    1901672.5    2237913.3 
   20700        5.175    20830.983    7179657.3    760471.13    1197942.1    1958413.2    2223116.5 
   20800          5.2    20772.563    7337704.3     819081.3    1194582.5    2013663.8    2208319.7 
   20900        5.225    20578.658    7500181.5    883545.86    1183431.5    2066977.3    2193522.8 
   21000         5.25    20307.984    7680471.2    950908.82    1167865.7    2118774.5      2178726 
   21100        5.275    20039.742    7838189.8    1015652.1    1152439.7    2168091.7    2163929.1 
   21200          5.3    19600.816    8057437.2    1088502.6      1127198    2215700.6    2149132.3 
   21300        5.325    18969.927    8422196.3    1169642.3    1090917.1    2260559.4    2134335.5 
   21400         5.35    18311.726    8774124.9    1250969.1    1053065.4    2304034.5    2119538.6 
   21500        5.375    17594.538    9070731.7    1334293.6    1011821.6    2346115.2    2104741.8 
   21600          5.4    16884.545    9381619.7    1415691.3    970991.52    2386682.8      2089945 
   21700        5.425     16197.72    9644407.3    1495549.4    931493.76    2427043.1    2075148.1 
   21800         5.45    15578.487    9803070.3    1570790.9     895883.1      2466674    2060351.3 
   21900        5.475    15068.955    9890930.2      1639098    866581.09      2505679    2045554.4 
   22000          5.5    14632.723     10024021    1702981.8    841494.36    2544476.1    2030757.6 
   22100        5.525    14219.452     10127815    1765979.9     817728.1      2583708    2015960.8 
   22200         5.55    13863.847     10300553    1826936.2     797278.1    2624214.3    2001163.9 
   22300        5.575    13515.514     10514096    1890704.7    777246.25      2667951    1986367.1 
   22400          5.6    13364.516     10765075    1956058.7    768562.71    2724621.4    1971570.2 
   22500        5.625    13448.575     11064429    2045462.3    773396.72      2818859    1956773.4 
   22600         5.65    14037.666     11395871    2157825.5    807273.99    2965099.5    1941976.6 
   22700        5.675    14748.155     11746188    2278231.1    848132.63    3126363.7    1927179.7 
   22800          5.7    15376.332     12061290    2400136.3    884257.63      3284394    1912382.9 
   22900        5.725     16252.53     12432294    2521548.5    934645.79    3456194.2    1897586.1 
