LAMMPS (29 Sep 2021)
  using 1 OpenMP thread(s) per MPI task
Reading data file ...
  orthogonal box = (-0.39686059 -0.39310336 0.0000000) to (102.14488 101.64112 526.16902)
  3 by 2 by 16 MPI processor grid
  reading atoms ...
  444272 atoms
  reading velocities ...
  444272 velocities
  read_data CPU = 4.378 seconds
222085 atoms in group g_left
222187 atoms in group g_right

CITE-CITE-CITE-CITE-CITE-CITE-CITE-CITE-CITE-CITE-CITE-CITE-CITE

Your simulation uses code contributions which should be cited:
- @article{cjiang2012
The log file lists these citations in BibTeX format.

CITE-CITE-CITE-CITE-CITE-CITE-CITE-CITE-CITE-CITE-CITE-CITE-CITE

Neighbor list info ...
  update every 1 steps, delay 10 steps, check yes
  max neighbors/atom: 2000, page size: 100000
  master list distance cutoff = 8.28721
  ghost atom cutoff = 8.28721
  binsize = 4.143605, bins = 25 25 127
  3 neighbor lists, perpetual/occasional/extra = 3 0 0
  (1) pair eam/alloy, perpetual, skip from (3)
      attributes: half, newton on
      pair build: skip
      stencil: none
      bin: none
  (2) pair edip/multi, perpetual
      attributes: full, newton on
      pair build: full/bin/atomonly
      stencil: full/bin/3d
      bin: standard
  (3) neighbor class addition, perpetual, half/full from (2)
      attributes: half, newton on
      pair build: halffull/newton
      stencil: none
      bin: none
Setting up Verlet run ...
  Unit style    : metal
  Current step  : 0
  Time step     : 0.00025
Per MPI rank memory allocation (min/avg/max) = 8.328 | 12.55 | 14.57 Mbytes
Step Time Temp Press PotEng KinEng TotEng Volume 
       0            0    8199.1935    88199.325   -2068877.4    470851.26   -1598026.2    5505183.5 
     100        0.025    8198.3986    88329.511   -2068869.2    470805.62   -1598063.5    5494720.7 
     200         0.05    8198.3456    88384.005   -2068882.9    470802.57   -1598080.3      5484258 
     300        0.075    8198.3499    88505.964   -2068881.5    470802.82   -1598078.7    5473795.2 
     400          0.1    8197.9481    88926.327   -2068844.6    470779.74   -1598064.8    5463332.4 
     500        0.125    8198.5739    88877.804   -2068874.9    470815.68   -1598059.2    5452869.7 
     600         0.15    8198.7118    88896.369   -2068888.3     470823.6   -1598064.7    5442406.9 
     700        0.175    8198.1436    89122.836     -2068867    470790.97     -1598076    5431944.1 
     800          0.2    8198.0036    89359.423   -2068872.7    470782.93   -1598089.8    5421481.4 
     900        0.225    8197.3349    89631.599   -2068840.4    470744.53   -1598095.9    5411018.6 
    1000         0.25    8197.8936    89784.933     -2068866    470776.61   -1598089.4    5400555.8 
    1100        0.275    8198.1525    89829.281     -2068881    470791.48   -1598089.5    5390093.1 
    1200          0.3    8197.7801    90117.451   -2068858.8     470770.1   -1598088.7    5379630.3 
    1300        0.325     8197.975    90415.385   -2068850.7    470781.29   -1598069.4    5369167.5 
    1400         0.35    8198.2935     90383.16   -2068858.3    470799.58   -1598058.7    5358704.8 
    1500        0.375    8198.5956    90551.705   -2068874.3    470816.93   -1598057.4      5348242 
    1600          0.4    8198.1291    90648.031   -2068850.6    470790.14   -1598060.5    5337779.2 
    1700        0.425    8198.3572    91018.953   -2068874.3    470803.24   -1598071.1    5327316.5 
    1800         0.45      8198.15    91252.957   -2068869.5    470791.34   -1598078.1    5316853.7 
    1900        0.475    8198.3914    91347.533   -2068889.4     470805.2   -1598084.2    5306390.9 
    2000          0.5    8198.1835    91549.467   -2068872.8    470793.26   -1598079.5    5295928.2 
    2100        0.525    8197.6973    91563.761     -2068850    470765.34   -1598084.7    5285465.4 
    2200         0.55    8198.0429    91891.545   -2068868.2    470785.19     -1598083    5275002.6 
    2300        0.575     8199.199    91927.696   -2068928.6    470851.58     -1598077    5264539.9 
    2400          0.6    8201.4335    91904.553   -2069051.5     470979.9   -1598071.6    5254077.1 
    2500        0.625     8207.415     92288.52   -2069386.1     471323.4   -1598062.7    5243614.3 
    2600         0.65    8199.3919    93286.418   -2068911.3    470862.66   -1598048.6    5233151.6 
    2700        0.675    8190.6395    94831.295   -2068407.5    470360.04   -1598047.5    5222688.8 
    2800          0.7    8176.0005    96310.693   -2067576.8    469519.37   -1598057.4      5212226 
    2900        0.725    8156.5197    98279.825   -2066455.2    468400.66   -1598054.6    5201763.3 
    3000         0.75     8138.838    100503.82   -2065444.7    467385.26   -1598059.4    5191300.5 
    3100        0.775    8119.5602     102284.3   -2064335.4     466278.2   -1598057.2    5180837.7 
    3200          0.8    8102.4523    104025.32   -2063344.6    465295.75   -1598048.8      5170375 
    3300        0.825    8082.3364    106429.01   -2062192.4    464140.57   -1598051.9    5159912.2 
    3400         0.85    8052.2476    109163.12     -2060467    462412.67   -1598054.4    5149449.4 
    3500        0.875    8019.7759    112559.83   -2058589.4    460547.93   -1598041.4    5138986.7 
    3600          0.9     7978.684    116400.98   -2056227.7    458188.17   -1598039.5    5128523.9 
    3700        0.925    7938.5904    120538.06   -2053932.6    455885.73   -1598046.9    5118061.1 
    3800         0.95    7896.9045    124677.47   -2051547.1    453491.85   -1598055.2    5107598.4 
    3900        0.975    7846.8515    129126.41   -2048666.7    450617.48   -1598049.2    5097135.6 
    4000            1    7794.8388    133682.51   -2045662.4    447630.57   -1598031.8    5086672.8 
    4100        1.025    7739.9559    138324.51   -2042498.7    444478.84   -1598019.9    5076210.1 
    4200         1.05     7684.103    142947.06   -2039283.4     441271.4     -1598012    5065747.3 
    4300        1.075    7628.6868    147783.49   -2036098.3    438089.04   -1598009.2    5055284.5 
    4400          1.1    7570.3423    153565.06   -2032762.9    434738.52   -1598024.4    5044821.8 
    4500        1.125    7513.4257    158815.82   -2029500.5       431470   -1598030.5      5034359 
    4600         1.15    7456.6561     164199.4   -2026233.6    428209.91   -1598023.7    5023896.3 
    4700        1.175    7398.6472    169704.74   -2022894.2    424878.66   -1598015.5    5013433.5 
    4800          1.2    7342.1703    175139.59   -2019647.2    421635.39   -1598011.8    5002970.7 
    4900        1.225    7285.7987    180512.96   -2016404.5    418398.16   -1598006.4      4992508 
    5000         1.25    7228.8237    186224.76   -2013131.3    415126.29     -1598005    4982045.2 
    5100        1.275    7171.3049    191742.36   -2009827.9    411823.19   -1598004.7    4971582.4 
    5200          1.3     7113.311    197018.16   -2006497.1    408492.79   -1598004.3    4961119.7 
    5300        1.325    7054.6158    202844.49   -2003136.9    405122.13   -1598014.8    4950656.9 
    5400         1.35    6998.2099    208734.46   -1999904.4    401882.94   -1598021.4    4940194.1 
    5500        1.375    6940.4258    214224.53   -1996579.6     398564.6     -1598015    4929731.4 
    5600          1.4    6883.1827    219873.89   -1993283.7    395277.32   -1598006.3    4919268.6 
    5700        1.425    6825.8551    225420.38   -1989986.5     391985.2   -1598001.3    4908805.8 
    5800         1.45    6768.1553    231263.43   -1986664.2     388671.7   -1597992.5    4898343.1 
    5900        1.475    6711.1606    236949.82   -1983384.2    385398.69   -1597985.5    4887880.3 
    6000          1.5     6654.655    242329.88   -1980127.3    382153.77   -1597973.5    4877417.5 
    6100        1.525    6598.4078    248217.91     -1976890    378923.69   -1597966.3    4866954.8 
    6200         1.55    6540.3305     254029.8   -1973538.9    375588.51   -1597950.4      4856492 
    6300        1.575    6483.6142    259533.45   -1970268.7    372331.49   -1597937.2    4846029.2 
    6400          1.6    6424.7526    265350.14   -1966884.6    368951.28   -1597933.3    4835566.5 
    6500        1.625    6368.3087    271337.92   -1963635.7    365709.89   -1597925.8    4825103.7 
    6600         1.65    6309.8488    277429.78   -1960286.3    362352.75   -1597933.5    4814640.9 
    6700        1.675    6251.9951    283377.62   -1956975.5    359030.41     -1597945    4804178.2 
    6800          1.7    6194.3324    289330.08   -1953658.2    355719.04   -1597939.2    4793715.4 
    6900        1.725    6137.3324     295246.1   -1950390.1    352445.73   -1597944.4    4783252.6 
    7000         1.75    6079.0185    301701.51   -1947040.3    349096.96   -1597943.3    4772789.9 
    7100        1.775    6022.3702    308186.88   -1943783.7    345843.84   -1597939.9    4762327.1 
    7200          1.8     5950.315    318560.86   -1939653.7    341705.97   -1597947.7    4751864.3 
    7300        1.825     5907.687    328268.01   -1937213.4    339257.99   -1597955.5    4741401.6 
    7400         1.85    5856.7035    341582.41   -1934274.2    336330.18   -1597944.1    4730938.8 
    7500        1.875    5804.8169    352987.64   -1931294.4    333350.51   -1597943.9      4720476 
    7600          1.9    5749.4677    360920.49   -1928101.8       330172   -1597929.8    4710013.3 
    7700        1.925    5714.6033    367753.91   -1926089.7    328169.86   -1597919.9    4699550.5 
    7800         1.95    5662.4849    377822.87     -1923102    325176.88   -1597925.1    4689087.7 
    7900        1.975    5618.8939     385947.5   -1920603.3     322673.6   -1597929.7      4678625 
    8000            2    5561.8313    387429.54   -1917322.4    319396.69   -1597925.7    4668162.2 
    8100        2.025    5519.3676    390382.13   -1914875.2    316958.15     -1597917    4657699.4 
    8200         2.05    5469.2065    394368.77   -1911995.6    314077.57   -1597918.1    4647236.7 
    8300        2.075    5417.0042    399058.62   -1909010.9    311079.78   -1597931.1    4636773.9 
    8400          2.1    5371.5492    403947.22     -1906412    308469.45   -1597942.6    4626311.1 
    8500        2.125    5320.9965    409873.27     -1903503    305566.39   -1597936.6    4615848.4 
    8600         2.15    5277.8011    415706.47   -1901022.7    303085.83   -1597936.9    4605385.6 
    8700        2.175     5231.713    421351.43   -1898376.9    300439.15   -1597937.7    4594922.8 
    8800          2.2      5187.37    426783.15   -1895840.8    297892.68   -1597948.1    4584460.1 
    8900        2.225    5141.7995    431371.85     -1893222    295275.72   -1597946.2    4573997.3 
    9000         2.25    5095.1835    437578.12   -1890546.6    292598.73   -1597947.9    4563534.5 
    9100        2.275    5046.0935    444615.39   -1887740.7    289779.66     -1597961    4553071.8 
    9200          2.3    4998.5362    450035.56     -1885021    287048.61   -1597972.4      4542609 
    9300        2.325     4947.132    457448.74   -1882076.3    284096.65   -1597979.7    4532146.2 
    9400         2.35    4899.7641    463829.45   -1879364.7    281376.47   -1597988.2    4521683.5 
    9500        2.375    4850.7121    471134.89   -1876538.4    278559.58   -1597978.8    4511220.7 
    9600          2.4    4801.1798    478258.36   -1873689.8    275715.12   -1597974.6    4500757.9 
    9700        2.425    4748.7909    484866.49   -1870675.8     272706.6   -1597969.2    4490295.2 
    9800         2.45    4697.2532    492415.91   -1867705.9    269746.97   -1597958.9    4479832.4 
    9900        2.475    4646.7172     499938.1   -1864793.2    266844.86   -1597948.3    4469369.6 
   10000          2.5    4595.1644    507688.15   -1861843.1    263884.36   -1597958.7    4458906.9 
   10100        2.525    4542.1741    514113.64   -1858804.9    260841.32   -1597963.6    4448444.1 
   10200         2.55    4490.2075    521610.37   -1855830.2    257857.05   -1597973.2    4437981.3 
   10300        2.575    4434.8501    529428.77   -1852652.4    254678.07   -1597974.4    4427518.6 
   10400          2.6    4381.7895    536587.63   -1849601.6    251630.98   -1597970.7    4417055.8 
   10500        2.625    4328.7584    545058.75   -1846553.4    248585.59   -1597967.8      4406593 
   10600         2.65    4271.7748     552722.3   -1843287.1    245313.22   -1597973.9    4396130.3 
   10700        2.675    4217.4718    560129.76   -1840172.3    242194.79   -1597977.5    4385667.5 
   10800          2.7    4161.7548    568843.07     -1836978    238995.16   -1597982.8    4375204.7 
   10900        2.725    4103.9072     576257.3     -1833664    235673.17   -1597990.8      4364742 
   11000         2.75    4050.1867    584506.98   -1830570.9    232588.18   -1597982.7    4354279.2 
   11100        2.775    3991.6042    592453.42   -1827196.9    229223.99   -1597972.9    4343816.4 
   11200          2.8    3939.3166    600772.94   -1824186.5     226221.3   -1597965.2    4333353.7 
   11300        2.825    3882.6097    608342.34   -1820941.4    222964.82   -1597976.5    4322890.9 
   11400         2.85    3826.1728    616556.24     -1817718    219723.84   -1597994.2    4312428.1 
   11500        2.875    3788.0188    622294.84   -1815534.5    217532.79   -1598001.7    4301965.4 
   11600          2.9    3794.6576    625361.56   -1815917.8    217914.04   -1598003.8    4291502.6 
   11700        2.925     3777.305    625681.07   -1814927.2    216917.53   -1598009.7    4281039.8 
   11800         2.95    3754.8756    627906.83   -1813638.4    215629.49   -1598008.9    4270577.1 
   11900        2.975    3765.2779    629274.27   -1814237.4    216226.86   -1598010.6    4260114.3 
   12000            3    3738.3078     631799.4   -1812688.1    214678.06     -1598010    4249651.5 
   12100        3.025    3747.3151    633134.59   -1813187.8    215195.32   -1597992.5    4239188.8 
   12200         3.05    3736.0954    633496.58     -1812530    214551.01     -1597979      4228726 
   12300        3.075    3721.7512    636039.94   -1811708.6    213727.27   -1597981.3    4218263.2 
   12400          3.1     3735.005     637292.3   -1812485.4    214488.39     -1597997    4207800.5 
   12500        3.125     3713.236    639464.95   -1811247.1    213238.28   -1598008.8    4197337.7 
   12600         3.15    3730.8014     640390.3   -1812274.1    214246.99   -1598027.1    4186874.9 
   12700        3.175    3712.1841    641277.74   -1811219.2    213177.86   -1598041.4    4176412.2 
   12800          3.2    3709.4703    643009.47   -1811057.2    213022.02   -1598035.2    4165949.4 
   12900        3.225     3675.226    647380.05     -1809067    211055.49   -1598011.5    4155486.6 
   13000         3.25     3632.056    651602.23     -1806582    208576.39   -1598005.6    4145023.9 
   13100        3.275    3596.6002    654963.97   -1804549.8    206540.29   -1598009.5    4134561.1 
   13200          3.3    3544.3832    659196.19   -1801562.5    203541.64   -1598020.9    4124098.3 
   13300        3.325    3510.6356    664015.92   -1799643.7    201603.63   -1598040.1    4113635.6 
   13400         3.35    3450.6218    667646.11     -1796200    198157.25   -1598042.8    4103172.8 
   13500        3.375    3416.3166    672684.48   -1794230.4    196187.22   -1598043.1      4092710 
   13600          3.4    3358.5789    678341.11   -1790915.2    192871.55   -1598043.7    4082247.3 
   13700        3.425    3299.8855    682981.17   -1787555.3    189500.99   -1598054.3    4071784.5 
   13800         3.45    3242.5859    689392.02   -1784276.9    186210.47   -1598066.4    4061321.7 
   13900        3.475    3182.3991    695521.98   -1780830.2    182754.15     -1598076      4050859 
   14000          3.5    3119.9363    700965.93   -1777247.5    179167.13   -1598080.3    4040396.2 
   14100        3.525       3054.5    706883.84   -1773486.9    175409.34   -1598077.6    4029933.4 
   14200         3.55    2989.1159    713081.64   -1769738.5    171654.56   -1598083.9    4019470.7 
   14300        3.575    2921.5707     719319.2   -1765863.4    167775.68   -1598087.7    4009007.9 
   14400          3.6    2857.5775    726314.58   -1762202.5    164100.77   -1598101.7    3998545.1 
   14500        3.625     2792.913    734001.59   -1758496.9    160387.32   -1598109.5    3988082.4 
   14600         3.65    2730.4056    740960.32   -1754897.5    156797.73   -1598099.7    3977619.6 
   14700        3.675    2668.2723    748029.72   -1751326.2    153229.63   -1598096.6    3967156.8 
   14800          3.7    2604.5193    755434.28   -1747667.9    149568.52   -1598099.4    3956694.1 
   14900        3.725     2544.937     761677.3   -1744256.9    146146.91     -1598110    3946231.3 
   15000         3.75    2481.8607    769896.41   -1740644.3    142524.65   -1598119.6    3935768.5 
   15100        3.775    2424.3099    777959.65   -1737336.6    139219.71   -1598116.9    3925305.8 
   15200          3.8    2368.1397    785287.03   -1734098.8    135994.06   -1598104.8      3914843 
   15300        3.825    2314.2393    792600.22   -1730990.7    132898.74   -1598091.9    3904380.2 
   15400         3.85     2261.355    801308.62   -1727954.4    129861.78   -1598092.6    3893917.5 
   15500        3.875     2207.684    809311.38     -1724872    126779.64   -1598092.3    3883454.7 
   15600          3.9    2156.1095     818048.9   -1721919.6     123817.9   -1598101.7    3872991.9 
   15700        3.925    2103.5153     827117.7   -1718910.8    120797.59   -1598113.2    3862529.2 
   15800         3.95    2048.8652       834511   -1715774.9    117659.23   -1598115.7    3852066.4 
   15900        3.975    1995.3181    843833.52   -1712702.4     114584.2   -1598118.2    3841603.6 
   16000            4    1945.3183    852410.08   -1709830.1    111712.89   -1598117.2    3831140.9 
   16100        4.025    1893.2671    861306.15   -1706836.7    108723.77   -1598112.9    3820678.1 
   16200         4.05    1846.6534    870782.95   -1704158.3     106046.9   -1598111.4    3810215.3 
   16300        4.075    1796.6047    882614.13   -1701290.4    103172.78   -1598117.7    3799752.6 
   16400          4.1    1747.7637     896092.9   -1698495.6    100368.01   -1598127.6    3789289.8 
   16500        4.125    1725.8712    906227.16   -1697256.6    99110.802   -1598145.8      3778827 
   16600         4.15    1728.6295    912994.94   -1697427.9      99269.2   -1598158.7    3768364.3 
   16700        4.175    1715.8338    916812.42   -1696688.4    98534.389     -1598154    3757901.5 
   16800          4.2    1706.0242    919812.87   -1696107.2    97971.056   -1598136.1    3747438.7 
   16900        4.225    1715.9979    923942.41   -1696602.5    98543.813   -1598058.7      3736976 
   17000         4.25    1689.2736    929832.52   -1694873.3    97009.127   -1597864.1    3726513.2 
   17100        4.275    1716.1915    934673.03   -1695284.3    98554.929   -1596729.4    3716050.4 
   17200          4.3    1731.5644    941041.75   -1687308.7     99437.74   -1587870.9    3705587.7 
   17300        4.325    1810.6624    950867.75   -1681881.4    103980.07   -1577901.3    3695124.9 
   17400         4.35    1818.5832    959111.76   -1674766.1    104434.93   -1570331.2    3684662.1 
   17500        4.375     1841.564    971546.17   -1667400.3    105754.64   -1561645.6    3674199.4 
   17600          4.4    1889.1474    985732.55   -1659291.6    108487.19   -1550804.4    3663736.6 
   17700        4.425    1868.7501    1000984.5   -1648721.1    107315.84   -1541405.3    3653273.8 
   17800         4.45    1879.3547    1019463.9   -1639001.7    107924.82   -1531076.9    3642811.1 
   17900        4.475    1933.4878    1041072.7   -1626369.6     111033.5   -1515336.1    3632348.3 
   18000          4.5    2018.0174    1062515.4   -1614641.4    115887.75   -1498753.7    3621885.5 
   18100        4.525    2042.8883    1085996.3   -1600984.9    117315.99   -1483668.9    3611422.8 
   18200         4.55    2126.9452    1114264.1   -1587344.4    122143.09   -1465201.3      3600960 
   18300        4.575    2219.6571    1137638.9   -1572886.7    127467.22   -1445419.5    3590497.3 
   18400          4.6    2302.8446    1163936.6   -1559012.1    132244.39   -1426767.7    3580034.5 
   18500        4.625    2411.0672    1190463.8   -1544839.3    138459.23   -1406380.1    3569571.7 
   18600         4.65    2538.6175    1215756.3   -1531051.1       145784   -1385267.1      3559109 
   18700        4.675    2654.6032    1242856.7   -1517306.9    152444.66   -1364862.2    3548646.2 
   18800          4.7    2786.0872    1270305.2   -1504125.3    159995.33     -1344130    3538183.4 
   18900        4.725    2927.5161    1297097.9   -1491058.4     168117.1   -1322941.3    3527720.7 
   19000         4.75     3066.696    1324083.8     -1477866    176109.72   -1301756.3    3517257.9 
   19100        4.775    3198.8123    1350169.8   -1464753.4     183696.7   -1281056.7    3506795.1 
   19200          4.8    3324.8777    1375935.3   -1451379.6     190936.2   -1260443.4    3496332.4 
   19300        4.825    3452.0631    1403961.3   -1437604.3    198240.02   -1239364.3    3485869.6 
   19400         4.85    3553.9692    1431939.4     -1422789    204092.13   -1218696.8    3475406.8 
   19500        4.875    3642.0194    1458129.5   -1407705.3    209148.55   -1198556.7    3464944.1 
   19600          4.9    3724.2264    1483961.8   -1392078.9    213869.41   -1178209.5    3454481.3 
   19700        4.925    3840.2062    1507130.4     -1378360    220529.73   -1157830.3    3444018.5 
   19800         4.95    4050.4249    1521501.8   -1370400.3    232601.86   -1137798.4    3433555.8 
   19900        4.975    4248.9115    1526372.5   -1361875.6    244000.26   -1117875.4      3423093 
   20000            5    4452.5475    1529863.8   -1353511.7    255694.37   -1097817.4    3412630.2 
   20100        5.025    4690.5726    1536672.8   -1347130.7    269363.33   -1077767.4    3402167.5 
   20200         5.05    4910.7542    1546574.2   -1339787.8    282007.59   -1057780.3    3391704.7 
   20300        5.075    5141.8555    1559306.8   -1332883.2    295278.94   -1037604.3    3381241.9 
   20400          5.1    5318.2808    1577999.8   -1322668.6    305410.43   -1017258.2    3370779.2 
   20500        5.125    5496.6132    1596587.9   -1312311.8    315651.45   -996660.33    3360316.4 
   20600         5.15    5639.4357    1614880.5   -1299779.8    323853.24    -975926.6    3349853.6 
   20700        5.175    5797.5043    1639137.9   -1287722.5    332930.58   -954791.88    3339390.9 
   20800          5.2    5929.8081    1664232.9   -1273919.7    340528.33   -933391.37    3328928.1 
   20900        5.225     6063.108    1687997.3   -1259820.4    348183.28   -911637.09    3318465.3 
   21000         5.25    6189.2918      1711835   -1245212.9    355429.58   -889783.33    3308002.6 
   21100        5.275     6315.674    1739860.2   -1230979.6    362687.26   -868292.36    3297539.8 
   21200          5.3    6431.3543    1766623.5   -1216931.1    369330.39   -847600.69      3287077 
   21300        5.325    6532.7098    1792347.7   -1203206.2    375150.88   -828055.32    3276614.3 
   21400         5.35    6602.4788    1819116.2     -1189193    379157.47   -810035.51    3266151.5 
   21500        5.375    6652.5925    1846041.4   -1175441.7    382035.33   -793406.41    3255688.7 
   21600          5.4    6661.7867    1872234.9   -1161064.8    382563.32   -778501.48      3245226 
   21700        5.425    6651.4596      1897761   -1146754.6    381970.27   -764784.32    3234763.2 
   21800         5.45    6631.1329    1922833.5   -1132665.6    380802.98   -751862.58    3224300.4 
   21900        5.475    6622.2794    1947441.4   -1119656.4    380294.55   -739361.85    3213837.7 
   22000          5.5    6626.3506    1971441.2   -1107677.9    380528.35   -727149.56    3203374.9 
   22100        5.525    6655.6161    1994183.4   -1097372.8    382208.97   -715163.84    3192912.1 
   22200         5.55     6719.283    2018883.5     -1089123    385865.14   -703257.83    3182449.4 
   22300        5.575    6806.9493    2053610.1   -1082338.1     390899.5   -691438.56    3171986.6 
   22400          5.6    6938.7687    2084095.7   -1077910.4    398469.43   -679440.97    3161523.8 
   22500        5.625    7103.7999    2111575.9   -1074430.1    407946.61   -666483.46    3151061.1 
   22600         5.65    7279.1355    2138007.4   -1069974.9    418015.52   -651959.34    3140598.3 
   22700        5.675    7504.7802    2152543.6   -1066238.6    430973.52   -635265.09    3130135.5 
   22800          5.7    7751.1228    2168018.2   -1062428.1    445120.12   -617307.99    3119672.8 
   22900        5.725    7970.2354    2190132.7   -1056863.4    457702.99   -599160.44      3109210 
   23000         5.75    8157.1034    2219003.4     -1049034    468434.17   -580599.82    3098747.2 
   23100        5.775    8356.5586    2252199.9   -1040835.8     479888.2   -560947.58    3088284.5 
   23200          5.8    8549.7402    2286066.2     -1031472    490981.94   -540490.03    3077821.7 
   23300        5.825    8743.1948    2319946.6   -1021463.5    502091.37   -519372.09    3067358.9 
   23400         5.85    8946.9038      2353620   -1011785.6    513789.68   -497995.89    3056896.2 
   23500        5.875    9115.0487      2386183   -1000075.3    523445.65   -476629.62    3046433.4 
   23600          5.9    9292.3387    2420037.5      -988660     533626.8   -455033.19    3035970.6 
   23700        5.925    9448.2716    2454134.2   -976129.04    542581.49   -433547.55    3025507.9 
   23800         5.95    9589.5833    2490374.4   -962830.43    550696.53    -412133.9    3015045.1 
   23900        5.975    9720.1156    2526427.1   -948769.26    558192.55   -390576.71    3004582.3 
   24000            6    9832.0343    2562932.6   -934135.15    564619.65    -369515.5    2994119.6 
   24100        6.025    9939.7055    2599183.9   -919335.96    570802.83   -348533.13    2983656.8 
   24200         6.05    10039.544    2635541.4   -904172.44    576536.21   -327636.22      2973194 
   24300        6.075    10147.811      2671430   -889847.64    582753.59   -307094.05    2962731.3 
   24400          6.1    10254.051    2704731.2   -875587.68     588854.6   -286733.08    2952268.5 
   24500        6.125    10380.752    2737341.1   -862454.97    596130.62   -266324.35    2941805.7 
   24600         6.15    10554.297    2763792.9   -851927.23    606096.69   -245830.54      2931343 
   24700        6.175    10741.725    2783910.6   -842342.16    616860.04   -225482.12    2920880.2 
   24800          6.2    10909.316      2796194   -831373.83    626484.21   -204889.62    2910417.4 
   24900        6.225    10986.445    2818268.7   -815145.34    630913.47   -184231.87    2899954.7 
   25000         6.25    11040.666    2846890.7   -798059.91    634027.17   -164032.74    2889491.9 
   25100        6.275     11048.04    2883275.4   -778471.48    634450.66   -144020.82    2879029.1 
   25200          6.3    11027.244    2915500.4   -757284.51    633256.38   -124028.13    2868566.4 
   25300        6.325    10996.737    2944942.2   -736200.79    631504.51   -104696.28    2858103.6 
   25400         6.35    10939.816    2977096.3   -714005.57    628235.73   -85769.842    2847640.8 
   25500        6.375     10888.03    3010166.2   -692648.41    625261.82   -67386.587    2837178.1 
   25600          6.4    10795.664    3042363.2   -669319.99    619957.57   -49362.424    2826715.3 
   25700        6.425    10702.272    3077530.5   -646949.34    614594.38   -32354.955    2816252.5 
   25800         6.45    10581.974    3114836.6   -623475.83    607686.07    -15789.76    2805789.8 
   25900        6.475      10449.6    3148916.7   -600154.72     600084.3    -70.41795      2795327 
   26000          6.5    10318.743    3186395.9   -577574.12    592569.65     14995.53    2784864.2 
   26100        6.525     10181.55      3223760   -555545.93    584691.14    29145.209    2774401.5 
   26200         6.55      10044.4    3262929.3   -534111.71     576815.1    42703.397    2763938.7 
   26300        6.575    9909.8382      3303166   -513564.05    569087.66    55523.607    2753475.9 
   26400          6.6    9776.1818      3351014   -493459.65    561412.24    67952.586    2743013.2 
   26500        6.625    9636.0625    3412241.8   -473718.79    553365.67    79646.886    2732550.4 
   26600         6.65     9518.117    3480978.2   -455673.06    546592.47    90919.406    2722087.6 
   26700        6.675    9379.8748    3555900.8   -436821.74     538653.7    101831.96    2711624.9 
   26800          6.7    9183.5297    3618631.2   -414713.63    527378.28    112664.65    2701162.1 
   26900        6.725     9009.552    3665599.2   -394188.03    517387.34    123199.31    2690699.3 
   27000         6.75    8817.6755    3714241.8    -372611.4    506368.54    133757.14    2680236.6 
   27100        6.775    8608.1563    3761512.4   -349988.53    494336.58    144348.05    2669773.8 
   27200          6.8     8415.227    3811826.4   -327999.25    483257.32    155258.07      2659311 
   27300        6.825    8236.3186    3856206.5   -306269.09    472983.23    166714.14    2648848.3 
   27400         6.85    8041.1405    3906361.4   -283003.48    461774.83    178771.35    2638385.5 
   27500        6.875    7869.4944    3954855.6   -260243.31    451917.78    191674.48    2627922.7 
   27600          6.9    7704.3327    4003063.6   -237369.65    442433.12    205063.47      2617460 
   27700        6.925    7547.7019    4055163.1   -214163.29    433438.36    219275.07    2606997.2 
   27800         6.95    7432.9138    4106484.5    -192912.2    426846.48    233934.28    2596534.4 
   27900        6.975    7301.0687    4157268.2   -170360.76    419275.07    248914.31    2586071.7 
   28000            7    7208.2942      4206669   -149162.02    413947.35    264785.33    2575608.9 
   28100        7.025    7158.6099    4251368.7   -129838.26    411094.15     281255.9    2565146.1 
   28200         7.05    7138.8963    4295148.9   -111762.36    409962.07    298199.71    2554683.4 
   28300        7.075    7125.0825    4336465.6   -93445.709    409168.79    315723.08    2544220.6 
   28400          7.1    7137.3844    4386871.7   -76118.255    409875.25    333756.99    2533757.8 
   28500        7.125    7156.2909    4433570.2   -58931.321    410960.98    352029.66    2523295.1 
   28600         7.15    7181.0894    4486018.8     -41556.4    412385.07    370828.67    2512832.3 
   28700        7.175    7184.7024    4540024.1   -22485.177    412592.55    390107.38    2502369.5 
   28800          7.2    7199.7181    4591659.2   -3875.0692    413454.86    409579.79    2491906.8 
   28900        7.225    7167.4662    4643389.5    18268.216    411602.74    429870.96      2481444 
   29000         7.25    7151.2445      4695743    39536.377    410671.19    450207.56    2470981.2 
   29100        7.275    7089.6439    4751463.5     63595.55    407133.68    470729.23    2460518.5 
   29200          7.3    7027.5959    4808482.8    87987.084    403570.48    491557.56    2450055.7 
   29300        7.325    6976.9907    4864661.9    112050.74    400664.39    512715.13    2439592.9 
   29400         7.35    6915.3119    4928810.4    137342.27    397122.39    534464.66    2429130.2 
   29500        7.375    6853.5991    4991276.5    162800.56    393578.44       556379    2418667.4 
   29600          7.4    6811.3088    5053362.5    188447.11    391149.86    579596.96    2408204.6 
   29700        7.425    6846.5581    5120365.9    213346.78     393174.1    606520.88    2397741.9 
   29800         7.45     6925.597    5191248.2    241986.35    397713.03    639699.38    2387279.1 
   29900        7.475     7072.816    5275254.7    274988.18    406167.31    681155.48    2376816.3 
   30000          7.5    7301.5802    5370379.6    309075.52    419304.45    728379.96    2366353.6 
   30100        7.525    7519.1243    5470002.4    345389.87    431797.25    777187.12    2355890.8 
   30200         7.55     7735.423    5575337.7    384791.46    444218.53    829009.99      2345428 
   30300        7.575    8038.1297    5691001.7    422452.75    461601.93    884054.68    2334965.3 
   30400          7.6    8311.2865      5809479    462387.09    477288.37    939675.47    2324502.5 
   30500        7.625     8561.619    5926437.1    505112.95    491664.11    996777.06    2314039.7 
   30600         7.65    8858.6681    6054060.6    545652.04    508722.61    1054374.6      2303577 
   30700        7.675    9104.2369    6180347.8    589680.01    522824.77    1112504.8    2293114.2 
   30800          7.7    9373.3486    6305812.5    632451.58    538278.92    1170730.5    2282651.4 
   30900        7.725    9662.8764      6429961    675369.24     554905.5    1230274.7    2272188.7 
   31000         7.75    9935.5911    6545131.1    719302.05    570566.56    1289868.6    2261725.9 
   31100        7.775    10187.454    6671914.8    764201.46    585030.15    1349231.6    2251263.1 
   31200          7.8     10446.68    6805846.5    810006.98    599916.63    1409923.6    2240800.4 
   31300        7.825    10663.832    6936625.4    858448.43    612386.93    1470835.4    2230337.6 
   31400         7.85    10895.735    7067823.8    905923.86    625704.29    1531628.1    2219874.8 
   31500        7.875    11114.379    7202035.9    954310.04    638260.27    1592570.3    2209412.1 
   31600          7.9    11322.657    7340805.6    1001995.6    650220.92    1652216.5    2198949.3 
   31700        7.925    11541.917    7474254.3    1048619.5    662812.26    1711431.8    2188486.6 
   31800         7.95    11752.705    7622616.3    1094553.6    674917.11    1769470.7    2178023.8 
   31900        7.975    12015.121    7781817.7    1136602.2    689986.74    1826588.9      2167561 
   32000            8    12342.068    7955399.1    1176297.7    708762.21    1885059.9    2157098.3 
   32100        8.025    12721.662    8116717.2    1215002.3    730560.93    1945563.2    2146635.5 
   32200         8.05     13130.89    8258377.6    1253961.8    754061.48    2008023.3    2136172.7 
   32300        8.075    13578.132    8396263.3    1293565.9    779745.07      2073311      2125710 
   32400          8.1    14038.013    8546862.3    1333433.5    806154.43    2139587.9    2115247.2 
   32500        8.125    14489.778    8699597.7    1374926.7    832097.73    2207024.4    2104784.4 
   32600         8.15    14953.359    8853604.1    1417233.5    858719.55    2275953.1    2094321.7 
   32700        8.175      15349.8    9014804.2    1464071.7    881485.82    2345557.5    2083858.9 
   32800          8.2    15755.565    9179225.8    1510702.6    904787.47      2415490    2073396.1 
   32900        8.225    16120.011    9346844.1    1560197.4    925716.35    2485913.8    2062933.4 
   33000         8.25    16444.608    9516288.3    1611824.8    944356.86    2556181.7    2052470.6 
   33100        8.275    16662.872    9694433.2    1669041.4       956891    2625932.4    2042007.8 
   33200          8.3    16753.804    9882173.6    1732972.2    962112.92    2695085.2    2031545.1 
   33300        8.325    16774.184     10071556    1800116.8    963283.25    2763400.1    2021082.3 
   33400         8.35    16692.662     10267995    1871838.6    958601.72    2830440.3    2010619.5 
   33500        8.375    16591.879     10467014    1942592.6    952814.12    2895406.7    2000156.8 
   33600          8.4    16380.854     10667414    2017578.3    940695.69      2958274      1989694 
   33700        8.425    16145.687     10885372    2091748.9    927190.87    3018939.8    1979231.2 
   33800         8.45    15860.159     11135739    2166286.4    910793.95    3077080.4    1968768.5 
   33900        8.475     15530.35     11425774      2241336     891854.2    3133190.2    1958305.7 
   34000          8.5    15171.555     11689709    2317181.3    871249.82    3188431.1    1947842.9 
   34100        8.525    14699.141     11907966    2398837.8    844120.73    3242958.6    1937380.2 
   34200         8.55    14237.412     12129407    2479196.2    817605.24    3296801.5    1926917.4 
   34300        8.575    13749.709     12357730    2560996.4    789598.11    3350594.5    1916454.6 
   34400          8.6    13263.417     12568761    2643146.8    761672.08    3404818.8    1905991.9 
