LAMMPS (29 Sep 2021)
  using 1 OpenMP thread(s) per MPI task
Reading restart file ...
  restart file = 29 Sep 2021, LAMMPS = 29 Sep 2021
  restoring atom style atomic from restart
  orthogonal box = (0.28957721 0.24772575 0.0000000) to (102.98508 102.52693 526.16902)
  3 by 2 by 16 MPI processor grid
  pair style hybrid/overlay stores no restart info
  448248 atoms
  read_restart CPU = 0.195 seconds
Resetting global fix info from restart file:
  fix style: npt, fix ID: 2

CITE-CITE-CITE-CITE-CITE-CITE-CITE-CITE-CITE-CITE-CITE-CITE-CITE

Your simulation uses code contributions which should be cited:
- @article{cjiang2012
The log file lists these citations in BibTeX format.

CITE-CITE-CITE-CITE-CITE-CITE-CITE-CITE-CITE-CITE-CITE-CITE-CITE

All restart file global fix info was re-assigned
Unused restart file peratom fix info:
  fix style: STORE, fix ID: spatialbins_COMPUTE_STORE
Neighbor list info ...
  update every 1 steps, delay 10 steps, check yes
  max neighbors/atom: 2000, page size: 100000
  master list distance cutoff = 8.28721
  ghost atom cutoff = 8.28721
  binsize = 4.143605, bins = 25 25 127
  3 neighbor lists, perpetual/occasional/extra = 3 0 0
  (1) pair eam/alloy, perpetual, skip from (3)
      attributes: half, newton on
      pair build: skip
      stencil: none
      bin: none
  (2) pair edip/multi, perpetual
      attributes: full, newton on
      pair build: full/bin/atomonly
      stencil: full/bin/3d
      bin: standard
  (3) neighbor class addition, perpetual, half/full from (2)
      attributes: half, newton on
      pair build: halffull/newton
      stencil: none
      bin: none
Setting up Verlet run ...
  Unit style    : metal
  Current step  : 11000348
  Time step     : 0.00025
Per MPI rank memory allocation (min/avg/max) = 7.533 | 11.55 | 13.83 Mbytes
Step Time Temp PotEng E_pair TotEng Press Volume Lx Ly Lz CPULeft 
11000348            0    299.49913   -2082495.8   -2082495.8   -2065142.7    -21.89875    5526676.7     102.6955    102.27921    526.16902            0 
11010000        2.413    299.97149   -2082528.3   -2082528.3   -2065147.8    -6.978263    5525883.5     102.6915    102.26851    526.16902    33901.598 
11020000        4.913    300.06625   -2082515.7   -2082515.7   -2065129.7    206.14859    5526823.4    102.70253    102.27493    526.16902    34000.724 
11030000        7.413    299.26109   -2082486.1   -2082486.1   -2065146.8    38.141154    5526531.1    102.70361    102.26844    526.16902    34191.333 
11040000        9.913    300.21487   -2082507.6   -2082507.6     -2065113    361.50827    5525452.4    102.68899    102.26303    526.16902    34103.711 
11050000       12.413    299.97295   -2082500.6   -2082500.6   -2065120.1     48.39867    5526743.5    102.69802    102.27794    526.16902    33926.945 
11060000       14.913    300.39732   -2082524.4   -2082524.4   -2065119.2    54.082777    5526244.9    102.69496    102.27176    526.16902     33696.69 
11070000       17.413    299.97275   -2082491.9   -2082491.9   -2065111.4    56.388427      5526151    102.69734    102.26765    526.16902    33429.942 
11080000       19.913    299.79312   -2082506.7   -2082506.7   -2065136.6   -344.40567    5526183.4    102.69554    102.27004    526.16902    33143.011 
11090000       22.413    300.68936   -2082535.5   -2082535.5   -2065113.4   -42.715212    5526140.7    102.69969    102.26512    526.16902    32837.473 
11100000       24.913    300.12376   -2082485.5   -2082485.5   -2065096.2    359.20141    5525961.8    102.69513    102.26635    526.16902    32522.278 
11110000       27.413    299.53219   -2082509.5   -2082509.5   -2065154.4    164.66109    5525501.9    102.68998    102.26297    526.16902    32192.338 
11120000       29.913    299.96257     -2082500     -2082500   -2065120.1   -97.990747    5526729.7    102.70294    102.27278    526.16902    31858.216 
11130000       32.413    299.99578   -2082514.4   -2082514.4   -2065132.5    73.190865    5525932.2    102.68868    102.27223    526.16902    31519.824 
11140000       34.913     300.0163   -2082490.5   -2082490.5   -2065107.4   -74.320988    5526730.7    102.69865    102.27708    526.16902    31175.905 
11150000       37.413     299.4775   -2082513.9   -2082513.9     -2065162   -214.34556      5527023    102.70734    102.27383    526.16902    30822.385 
11160000       39.913    299.84619   -2082513.2   -2082513.2     -2065140   -105.04541    5526177.9    102.69475    102.27073    526.16902    30465.829 
11170000       42.413    299.66334   -2082490.6   -2082490.6     -2065128   -52.236024    5526076.1    102.69262    102.27097    526.16902    30114.485 
11180000       44.913    300.13149   -2082507.4   -2082507.4   -2065117.6   -55.454415    5526202.4    102.68874    102.27717    526.16902    29764.322 
11190000       47.413     299.7693   -2082511.3   -2082511.3   -2065142.5   -68.922513    5526607.4    102.70452    102.26895    526.16902    29412.096 
11200000       49.913    299.64533   -2082493.9   -2082493.9   -2065132.3    -20.67196    5525747.8    102.69062    102.26688    526.16902    29058.568 
11210000       52.413    300.18097   -2082511.9   -2082511.9   -2065119.2    -49.71243    5526618.5    102.70006    102.27359    526.16902    28700.066 
11220000       54.913    300.76947   -2082526.1   -2082526.1   -2065099.4    396.30378    5525798.4    102.68891    102.26952    526.16902    28338.432 
11230000       57.413    300.03021   -2082501.5   -2082501.5   -2065117.7    101.95833    5525934.2    102.69405    102.26692    526.16902    27977.041 
11240000       59.913    300.29884   -2082500.1   -2082500.1   -2065100.6   -188.49109    5526876.4    102.70195    102.27649    526.16902    27616.179 
11250000       62.413    299.75254   -2082497.3   -2082497.3   -2065129.5    56.553843      5525776    102.68812    102.26989    526.16902    27254.411 
11260000       64.913    300.12517   -2082524.1   -2082524.1   -2065134.8    48.928163    5525693.9    102.69311    102.26341    526.16902    26892.677 
11270000       67.413    299.53662   -2082504.3   -2082504.3     -2065149   -96.814946    5526756.2    102.69679     102.2794    526.16902     26530.54 
11280000       69.913    299.91076   -2082512.6   -2082512.6   -2065135.6    296.75765    5525019.9    102.67871    102.26527    526.16902    26167.837 
11290000       72.413    299.04847   -2082472.4   -2082472.4   -2065145.4   -1.3032432    5526336.9    102.70094    102.26751    526.16902    25805.755 
11300000       74.913    299.72992     -2082498     -2082498   -2065131.6    21.753361    5526354.1    102.70225    102.26652    526.16902    25445.603 
11310000       77.413    299.91832   -2082558.6   -2082558.6   -2065181.2   -135.16584    5526356.5     102.6926    102.27618    526.16902    25085.815 
11320000       79.913    299.45296   -2082480.4   -2082480.4     -2065130   -136.87835    5526220.3    102.69295     102.2733    526.16902    24726.905 
11330000       82.413    299.60116   -2082516.9   -2082516.9   -2065157.9    146.63435    5525363.3    102.69352    102.25688    526.16902    24367.428 
11340000       84.913    300.52548     -2082543     -2082543   -2065130.4    51.906811    5525652.4    102.69339    102.26236    526.16902    24007.587 
11350000       87.413    299.89005   -2082521.7   -2082521.7     -2065146   -133.37816    5526251.2    102.70512    102.26176    526.16902    23649.214 
11360000       89.913    299.73414   -2082482.9   -2082482.9   -2065116.2   -80.356607    5526130.8    102.69633    102.26829    526.16902    23289.372 
11370000       92.413    299.96472   -2082502.7   -2082502.7   -2065122.6   -67.321458    5526089.5    102.69893    102.26493    526.16902    22928.922 
11380000       94.913    299.95795   -2082521.9   -2082521.9   -2065142.1   -40.222414      5526128    102.70176    102.26283    526.16902    22566.968 
11390000       97.413    300.06407   -2082515.9   -2082515.9   -2065130.1   -27.197108    5526466.8    102.69941    102.27143    526.16902    22205.169 
11400000       99.913    299.69502   -2082522.3   -2082522.3   -2065157.8    42.575721    5526292.4    102.69547    102.27213    526.16902    21844.465 
11410000      102.413     300.6875   -2082532.1   -2082532.1   -2065110.1     49.26934    5526118.9        102.7    102.26441    526.16902    21483.312 
11420000      104.913    300.15526   -2082513.9   -2082513.9   -2065122.8   -1.0194749    5526262.7    102.69006    102.27697    526.16902    21121.594 
11430000      107.413     300.2322   -2082485.8   -2082485.8   -2065090.2   -76.289168    5526968.6    102.70861    102.27156    526.16902    20759.746 
11440000      109.913    299.67908   -2082509.4   -2082509.4   -2065145.8    54.930405    5526064.6    102.68886    102.27449    526.16902    20397.303 
11450000      112.413    300.46478   -2082523.3   -2082523.3   -2065114.3    130.96626    5525671.4    102.69056    102.26552    526.16902    20034.715 
11460000      114.913    299.95116   -2082527.2   -2082527.2   -2065147.9    32.366117    5525281.2    102.68996     102.2589    526.16902    19671.947 
11470000      117.413    299.83116   -2082497.5   -2082497.5   -2065125.2   -214.23474    5526230.4    102.69718    102.26928    526.16902    19309.257 
11480000      119.913     299.7731     -2082519     -2082519     -2065150    77.093279    5525681.5    102.68987    102.26641    526.16902    18946.616 
11490000      122.413    299.74731   -2082513.4   -2082513.4   -2065145.9    81.750619    5525347.2    102.68679    102.26328    526.16902    18584.146 
11500000      124.913    299.55384   -2082495.4   -2082495.4   -2065139.1    53.933854    5526065.2    102.69406    102.26933    526.16902    18221.695 
11510000      127.413    300.44716   -2082530.4   -2082530.4   -2065122.3    219.75666    5526050.1    102.68635    102.27673    526.16902    17858.911 
11520000      129.913    300.49035   -2082524.7   -2082524.7   -2065114.2     145.1952    5526223.9    102.69197    102.27434    526.16902    17496.038 
11530000      132.413    300.45192   -2082514.7   -2082514.7   -2065106.4    11.575101    5526608.3    102.70757    102.26593    526.16902     17132.75 
11540000      134.913    299.94474   -2082510.7   -2082510.7   -2065131.8   -22.996778    5526001.3    102.69303    102.26917    526.16902    16769.317 
11550000      137.413    299.77341   -2082533.5   -2082533.5   -2065164.5   -72.820281    5526066.2    102.68906    102.27433    526.16902    16406.053 
11560000      139.913    299.87148   -2082486.3   -2082486.3   -2065111.6   -166.48801      5526072    102.69562     102.2679    526.16902    16042.593 
11570000      142.413    299.76314   -2082499.1   -2082499.1   -2065130.6    99.456337    5525133.2    102.68711    102.25901    526.16902    15679.401 
11580000      144.913     299.9426   -2082525.7   -2082525.7   -2065146.9   -53.944611    5526148.5    102.69283     102.2721    526.16902    15315.624 
11590000      147.413    300.24453   -2082524.1   -2082524.1   -2065127.7  -0.25248363    5526168.3    102.68975    102.27553    526.16902    14954.303 
11600000      149.913    299.64731   -2082502.5   -2082502.5   -2065140.8    268.73859    5525556.3    102.68683    102.26711    526.16902     14592.23 
11610000      152.413    300.55084   -2082521.4   -2082521.4   -2065107.3   -49.332267    5526248.8     102.6937    102.27308    526.16902    14228.316 
11620000      154.913    299.80964   -2082518.2   -2082518.2     -2065147       177.87    5525863.8    102.69462    102.26504    526.16902    13864.323 
11630000      157.413    299.93915   -2082538.4   -2082538.4   -2065159.8    67.007792    5526114.3     102.6938     102.2705    526.16902    13500.207 
11640000      159.913    299.89152   -2082510.6   -2082510.6   -2065134.7    224.01666    5525896.2    102.68926    102.27098    526.16902    13136.941 
11650000      162.413    300.09071   -2082507.9   -2082507.9   -2065120.5   -157.81894    5526542.8    102.69196    102.28026    526.16902    12773.118 
11660000      164.913     300.4012   -2082550.6   -2082550.6   -2065145.2   -68.084762    5525339.4    102.68752    102.26241    526.16902    12408.828 
11670000      167.413    300.10845   -2082501.4   -2082501.4     -2065113    3.8064257    5525952.3    102.69073    102.27055    526.16902    12044.577 
11680000      169.913    300.18173   -2082506.9   -2082506.9   -2065114.2    184.29784    5525770.5    102.68626    102.27165    526.16902    11680.583 
11690000      172.413     299.4201   -2082501.1   -2082501.1   -2065152.6   -56.112867    5526418.2     102.6858    102.28409    526.16902    11316.556 
11700000      174.913     299.9005     -2082542     -2082542   -2065165.6   -146.10115    5526310.8    102.69575    102.27219    526.16902    10952.117 
11710000      177.413    299.69653   -2082506.5   -2082506.5   -2065141.9   -266.23181    5527069.6    102.71337    102.26868    526.16902    10587.857 
11720000      179.913    299.92517   -2082507.3   -2082507.3   -2065129.5    155.05448    5526324.9    102.69727    102.27094    526.16902    10223.454 
11730000      182.413    299.98405   -2082506.5   -2082506.5   -2065125.2   -18.857622    5526301.2    102.69263    102.27512    526.16902     9858.985 
11740000      184.913    299.74912   -2082517.2   -2082517.2   -2065149.5   -27.878197    5527234.4    102.70596    102.27912    526.16902    9494.4589 
11750000      187.413    300.22669   -2082524.4   -2082524.4   -2065129.1    89.800556      5525942    102.68564    102.27544    526.16902    9129.8441 
11760000      189.913    299.85487   -2082528.7   -2082528.7     -2065155   -38.766736    5526322.3    102.69343    102.27472    526.16902    8765.4195 
11770000      192.413    300.32791     -2082507     -2082507   -2065105.9    197.27912    5526126.7     102.6945    102.27003    526.16902    8400.9381 
11780000      194.913    299.88546   -2082487.9   -2082487.9   -2065112.4   -251.23414    5525878.3    102.69375    102.26618    526.16902     8036.412 
11790000      197.413    300.22919   -2082517.7   -2082517.7   -2065122.3    25.981059    5526361.9    102.69351    102.27537    526.16902    7671.8671 
11800000      199.913    299.73743   -2082516.4   -2082516.4   -2065149.5   -38.969127    5525919.8    102.69012    102.27057    526.16902    7307.3173 
11810000      202.413    299.91552   -2082514.7   -2082514.7   -2065137.4   -208.39802    5526448.7    102.69533    102.27517    526.16902    6942.7047 
11820000      204.913    299.63203   -2082510.9   -2082510.9   -2065150.1    90.420557    5525962.6    102.69755    102.26395    526.16902    6578.0799 
11830000      207.413    300.38689   -2082545.5   -2082545.5     -2065141    110.02501    5526311.7    102.69826    102.26971    526.16902    6213.4072 
11840000      209.913    299.73206   -2082518.9   -2082518.9   -2065152.2   -226.64099    5526795.5    102.70473    102.27222    526.16902    5848.7763 
11850000      212.413    299.84356   -2082501.9   -2082501.9   -2065128.8   -46.163798    5526173.1    102.69113    102.27425    526.16902    5484.1138 
11860000      214.913    299.82411   -2082506.3   -2082506.3   -2065134.4    130.69353    5526966.8    102.70273    102.27738    526.16902    5119.4919 
11870000      217.413    300.10481   -2082529.8   -2082529.8   -2065141.6    15.319125    5526013.6    102.70323    102.25925    526.16902    4754.8057 
11880000      219.913     300.0755   -2082517.8   -2082517.8   -2065131.3    -45.47653    5526028.2    102.68781    102.27487    526.16902    4390.1238 
11890000      222.413    299.94302   -2082488.8   -2082488.8   -2065109.9     52.49391    5525657.2     102.6901    102.26572    526.16902    4025.4405 
11900000      224.913    299.76541   -2082527.6   -2082527.6     -2065159   -97.729218    5525824.9    102.69255    102.26639    526.16902    3660.6851 
11910000      227.413    300.11751   -2082519.6   -2082519.6   -2065130.7    66.124122    5526325.6    102.70164     102.2666    526.16902    3295.9475 
11920000      229.913    299.50046   -2082500.2   -2082500.2     -2065147     110.6573    5526587.5     102.7025    102.27059    526.16902    2931.1753 
11930000      232.413    300.27746   -2082514.4   -2082514.4   -2065116.2   -222.79112    5526292.4    102.68863    102.27895    526.16902     2566.405 
11940000      234.913    299.48495   -2082505.7   -2082505.7   -2065153.4    75.493652    5526692.8    102.70265    102.27239    526.16902    2201.6069 
11950000      237.413    300.32162   -2082518.6   -2082518.6   -2065117.8    -79.94804    5525806.4    102.69597    102.26264    526.16902     1836.797 
11960000      239.913     300.0889   -2082511.5   -2082511.5   -2065124.2    45.954476    5526514.5    102.69495    102.27676    526.16902         1472 
11970000      242.413    299.93942     -2082514     -2082514   -2065135.4   -69.144704    5526248.1    102.69077    102.27599    526.16902    1107.1779 
11980000      244.913    299.81647   -2082496.7   -2082496.7   -2065125.2     232.9115    5525125.6    102.68783    102.25814    526.16902    742.35619 
11990000      247.413    300.24197   -2082507.1   -2082507.1     -2065111   -322.95493    5526834.3    102.70474    102.27293    526.16902    377.53172 
12000000      249.913    299.83272   -2082514.3   -2082514.3   -2065141.9   -234.58216    5525378.5    102.69026    102.26041    526.16902     12.69665 
12000348          250    300.16523     -2082515     -2082515   -2065123.3   -127.11628    5526113.8    102.69483    102.26946    526.16902            0 
Loop time of 36484.6 on 96 procs for 1000000 steps with 448248 atoms

Performance: 0.592 ns/day, 40.538 hours/ns, 27.409 timesteps/s
100.0% CPU use with 96 MPI tasks x 1 OpenMP threads

MPI task timing breakdown:
Section |  min time  |  avg time  |  max time  |%varavg| %total
---------------------------------------------------------------
Pair    | 12283      | 21258      | 33698      |4255.6 | 58.27
Neigh   | 26.334     | 57.239     | 71.148     | 195.1 |  0.16
Comm    | 922.93     | 7197.1     | 14922      |4737.4 | 19.73
Output  | 1.939      | 1.9399     | 1.9562     |   0.1 |  0.01
Modify  | 519.48     | 7897.5     | 14084      |6811.0 | 21.65
Other   |            | 72.47      |            |       |  0.20

Nlocal:        4669.25 ave        5545 max        2593 min
Histogram: 12 0 0 0 12 0 12 0 25 35
Nghost:        9030.54 ave       11050 max        5124 min
Histogram: 12 0 0 0 1 23 4 15 29 12
Neighs:         0.00000 ave           0 max           0 min
Histogram: 96 0 0 0 0 0 0 0 0 0
FullNghs:      872629.0 ave 1.15403e+06 max      419615 min
Histogram: 12 0 12 0 0 20 4 11 17 20

Total # of neighbors = 83772428
Ave neighs/atom = 186.88857
Neighbor list builds = 2304
Dangerous builds = 0
System init for write_restart ...
System init for write_data ...
Total wall time: 10:08:05
