LAMMPS (24 Mar 2022)
OMP_NUM_THREADS environment is not set. Defaulting to 1 thread. (src/comm.cpp:98)
  using 1 OpenMP thread(s) per MPI task

# System init

units      metal
dimension  3
boundary   p p p
atom_style atomic
timestep   0.00050


# read data
read_data full_slab.data
Reading data file ...
  orthogonal box = (0 0 0) to (101.29907 101.29907 556.83251)
  1 by 1 by 6 MPI processor grid
  reading atoms ...
  452112 atoms
  read_data CPU = 0.784 seconds

# pair potential

pair_style hybrid/overlay eam/alloy edip/multi
pair_coeff * * eam/alloy Mishin-Ni-Al-2009.eam.alloy Al Ni NULL
pair_coeff * * edip/multi NiAlO.edip Al Ni O

mass 3 15.999


# reporting
thermo_style custom step time temp pe epair etotal press vol lx ly lz spcpu cpuremain elapsed
thermo 100

dump   1 all atom 100 generic.lammpstrj

# Single point
min_style cg
minimize 1e-5 1e-5 10000 100000

CITE-CITE-CITE-CITE-CITE-CITE-CITE-CITE-CITE-CITE-CITE-CITE-CITE

Your simulation uses code contributions which should be cited:

- @article{cjiang2012
 author    = {Jian, Chao and Morgan, Dane, and Szlufarska, Izabella},
 title     = {Carbon tri-interstitial defect: A model for DII center},
 journal   = {Physical Review B},
 volume    = {86},
 pages     = {144118},
 year      = {2012},
}

@article{lpizzagalli2010,
 author    = {G. Lucas, M. Bertolus, and L. Pizzagalli},
 journal   = {J. Phys. : Condens. Matter 22},
 volume    = {22},
 pages     = {035802},
 year      = {2010},
}

CITE-CITE-CITE-CITE-CITE-CITE-CITE-CITE-CITE-CITE-CITE-CITE-CITE

WARNING: Using 'neigh_modify every 1 delay 0 check yes' setting during minimization (src/min.cpp:187)
Neighbor list info ...
  update every 1 steps, delay 0 steps, check yes
  max neighbors/atom: 2000, page size: 100000
  master list distance cutoff = 8.28721
  ghost atom cutoff = 8.28721
  binsize = 4.143605, bins = 25 25 135
  3 neighbor lists, perpetual/occasional/extra = 3 0 0
  (1) pair eam/alloy, perpetual, skip from (3)
      attributes: half, newton on
      pair build: skip
      stencil: none
      bin: none
  (2) pair edip/multi, perpetual
      attributes: full, newton on
      pair build: full/bin/atomonly
      stencil: full/bin/3d
      bin: standard
  (3) neighbor class addition, perpetual, half/full from (2)
      attributes: half, newton on
      pair build: halffull/newton
      stencil: none
      bin: none
Per MPI rank memory allocation (min/avg/max) = 147.2 | 155.4 | 159.3 Mbytes
   Step          Time           Temp          PotEng         E_pair         TotEng         Press          Volume           Lx             Ly             Lz           S/CPU         CPULeft       Elapsed  
         0   0              0             -721934.35     -721934.35     -721934.35      22127.173      5713937.2      101.29907      101.29907      556.83251      0              0                      0 
       100   0.05           0             -1986950.1     -1986950.1     -1986950.1      249.72536      5713937.2      101.29907      101.29907      556.83251      1.5019086      6591.6128            100 
       161   0.0805         0             -1989172.7     -1989172.7     -1989172.7      1751.8349      5713937.2      101.29907      101.29907      556.83251      1.1781358      7233.111             161 
Loop time of 118.359 on 6 procs for 161 steps with 452112 atoms

99.6% CPU use with 6 MPI tasks x 1 OpenMP threads

Minimization stats:
  Stopping criterion = energy tolerance
  Energy initial, next-to-last, final = 
     -721934.351890804  -1989154.39296204  -1989172.70399453
  Force two-norm initial, final = 9.0878461e+09 89.339149
  Force max component initial, final = 1.7381212e+08 14.964314
  Final line search alpha, max atom move = 0.0081401328 0.1218115
  Iterations, force evaluations = 161 286

MPI task timing breakdown:
Section |  min time  |  avg time  |  max time  |%varavg| %total
---------------------------------------------------------------
Pair    | 94.66      | 101.55     | 114.13     |  88.2 | 85.80
Neigh   | 1.3098     | 1.3516     | 1.4216     |   3.3 |  1.14
Comm    | 0.3301     | 13.012     | 19.99      | 248.7 | 10.99
Output  | 0.060409   | 0.060413   | 0.060429   |   0.0 |  0.05
Modify  | 0          | 0          | 0          |   0.0 |  0.00
Other   |            | 2.384      |            |       |  2.01

Nlocal:          75352 ave       75842 max       74372 min
Histogram: 2 0 0 0 0 0 0 0 0 4
Nghost:        36795.3 ave       39019 max       32327 min
Histogram: 2 0 0 0 0 0 0 0 0 4
Neighs:              0 ave           0 max           0 min
Histogram: 6 0 0 0 0 0 0 0 0 0
FullNghs:  1.46572e+07 ave 1.49342e+07 max 1.41034e+07 min
Histogram: 2 0 0 0 0 0 0 0 0 4

Total # of neighbors = 87943240
Ave neighs/atom = 194.51649
Neighbor list builds = 3
Dangerous builds = 0

# Thermalisation

velocity all create 300 1 mom yes rot no

fix 1 all npt temp 300 300 $(100.0*dt) iso 1.0 1.0 $(1000*dt)
fix 1 all npt temp 300 300 0.050000000000000002776 iso 1.0 1.0 $(1000*dt)
fix 1 all npt temp 300 300 0.050000000000000002776 iso 1.0 1.0 0.5

run  5000
Per MPI rank memory allocation (min/avg/max) = 139.3 | 146.8 | 150.3 Mbytes
   Step          Time           Temp          PotEng         E_pair         TotEng         Press          Volume           Lx             Ly             Lz           S/CPU         CPULeft       Elapsed  
       161   0              300           -1989172.7     -1989172.7     -1971640.7      5029.1229      5713937.2      101.29907      101.29907      556.83251      0              0                      0 
       200   0.0195         154.55172     -1980611.2     -1980611.2     -1971579.2      2970.1358      5730134.6      101.39469      101.39469      557.35817      2.4929992      1989.9726             39 
       300   0.0695         164.81077     -1980662.2     -1980662.2     -1971030.7     -563.29839      5747367.4      101.49624      101.49624      557.91634      2.3211981      2053.6854            139 
       400   0.1195         188.43682     -1981107.2     -1981107.2     -1970095       -433.48321      5747309        101.49589      101.49589      557.91445      2.1836052      2082.1075            239 
       500   0.1695         195.064       -1980497.6     -1980497.6     -1969098       -282.54971      5751367.9      101.51978      101.51978      558.04576      2.3341991      2026.1199            339 
       600   0.2195         202.97323     -1979859.2     -1979859.2     -1967997.5     -391.25148      5753016.9      101.52948      101.52948      558.09909      2.1006421      2025.6094            439 
       700   0.2695         206.50917     -1978889.9     -1978889.9     -1966821.5      145.30419      5753225.7      101.53071      101.53071      558.10584      2.2271155      1985.2501            539 
       800   0.3195         214.64151     -1978134.4     -1978134.4     -1965590.8     -117.50942      5754922        101.54069      101.54069      558.16068      2.3252626      1930.5348            639 
       900   0.3695         221.40313     -1977256.4     -1977256.4     -1964317.7     -83.507255      5755113.1      101.54181      101.54181      558.16686      2.2741952      1884.5567            739 
      1000   0.4195         234.13866     -1976705.3     -1976705.3     -1963022.2      67.29833       5753944.2      101.53494      101.53494      558.12907      2.2830196      1838.2139            839 
      1100   0.4695         247.96078     -1976214.9     -1976214.9     -1961724.1     -46.686546      5752560.2      101.5268       101.5268       558.08432      2.094029       1809.5092            939 
      1200   0.5195         259.25201     -1975600.1     -1975600.1     -1960449.4      21.597264      5750827.5      101.5166       101.5166       558.02828      1.9641944      1789.1716           1039 
      1300   0.5695         271.69256     -1975095.1     -1975095.1     -1959217.4      10.204412      5749207.8      101.50707      101.50707      557.97588      2.1989579      1745.0405           1139 
      1400   0.6195         279.30699     -1974386.8     -1974386.8     -1958064.1      118.54386      5746942.8      101.49374      101.49374      557.9026       2.1701318      1702.526            1239 
      1500   0.6695         288.47923     -1973886.3     -1973886.3     -1957027.6      13.306594      5745815.1      101.4871       101.4871       557.86611      2.1890214      1658.3916           1339 
      1600   0.7195         296.8621      -1973494.8     -1973494.8     -1956146.2     -51.443245      5743729.3      101.47482      101.47482      557.7986       2.1752864      1614.7559           1439 
      1700   0.7695         301.76586     -1973123.9     -1973123.9     -1955488.8     -263.41861      5742449.7      101.46728      101.46728      557.75717      2.2368678      1567.9706           1539 
      1800   0.8195         302.66943     -1972847.1     -1972847.1     -1955159.1      134.08752      5741217.6      101.46002      101.46002      557.71728      2.2590421      1520.5393           1639 
      1900   0.8695         301.44585     -1972798.4     -1972798.4     -1955181.9     -76.725783      5740379.4      101.45508      101.45508      557.69013      2.2611194      1473.3956           1739 
      2000   0.9195         297.92249     -1972878.4     -1972878.4     -1955467.8      88.191325      5739459.6      101.44967      101.44967      557.66034      2.3229814      1424.5449           1839 
      2100   0.9695         298.31086     -1973167.3     -1973167.3     -1955734.1     -21.713186      5738251.8      101.44255      101.44255      557.62122      2.2288766      1379.1619           1939 
      2200   1.0195         298.59977     -1973296.3     -1973296.3     -1955846.2     -77.14461       5739016.8      101.44706      101.44706      557.646        2.2798698      1332.3724           2039 
      2300   1.0695         298.98292     -1973252.9     -1973252.9     -1955780.4      31.392571      5739542        101.45015      101.45015      557.66301      2.2984908      1285.3813           2139 
      2400   1.1195         301.55198     -1973232.3     -1973232.3     -1955609.7      34.730952      5741092.6      101.45929      101.45929      557.71323      2.3115127      1238.3992           2239 
      2500   1.1695         301.89761     -1973189.9     -1973189.9     -1955547.1     -48.170561      5744421.6      101.47889      101.47889      557.82101      2.2657712      1192.7289           2339 
      2600   1.2195         300.78602     -1973254.9     -1973254.9     -1955677       -10.495674      5746504.6      101.49116      101.49116      557.88842      2.3642054      1145.2549           2439 
      2700   1.2695         299.86666     -1973430.5     -1973430.5     -1955906.3     -55.691953      5749127.4      101.5066       101.5066       557.97329      2.2808903      1099.6863           2539 
      2800   1.3195         299.1216      -1973588.6     -1973588.6     -1956108        44.238665      5751082.5      101.5181       101.5181       558.03653      2.3132991      1053.6989           2639 
      2900   1.3695         299.20852     -1973711.3     -1973711.3     -1956225.5      19.213135      5754621.6      101.53892      101.53892      558.15097      2.282241       1008.3987           2739 
      3000   1.4195         299.4199      -1973761.2     -1973761.2     -1956263.1      162.45504      5757092.1      101.55345      101.55345      558.23083      2.3067788      962.84812           2839 
      3100   1.4695         299.82198     -1973784.2     -1973784.2     -1956262.6      124.83672      5759571.1      101.56802      101.56802      558.31094      2.3672649      916.67055           2939 
      3200   1.5195         300.30889     -1973792.8     -1973792.8     -1956242.8      142.91577      5762097.5      101.58287      101.58287      558.39257      2.3665921      870.75968           3039 
      3300   1.5695         299.79363     -1973734.4     -1973734.4     -1956214.5      107.85175      5764653.9      101.59789      101.59789      558.47513      2.3541153      825.21453           3139 
      3400   1.6195         300.29428     -1973706.1     -1973706.1     -1956156.9      7.3482735      5766884.1      101.61099      101.61099      558.54715      2.3795046      779.61229           3239 
      3500   1.6695         300.26161     -1973664.8     -1973664.8     -1956117.5     -1.1270032      5770045.6      101.62956      101.62956      558.64919      2.3710368      734.29894           3339 
      3600   1.7195         298.99727     -1973577.1     -1973577.1     -1956103.7      169.07077      5772857        101.64606      101.64606      558.73991      2.3591376      689.26464           3439 
      3700   1.7695         298.632       -1973472.6     -1973472.6     -1956020.6      54.061138      5776395.1      101.66682      101.66682      558.85404      2.3803028      644.22426           3539 
      3800   1.8195         299.02495     -1973279.2     -1973279.2     -1955804.2      67.898555      5780470.8      101.69073      101.69073      558.98544      2.3444499      599.59064           3639 
      3900   1.8695         301.21645     -1973123.9     -1973123.9     -1955520.8      85.637381      5783361.2      101.70767      101.70767      559.0786       2.3618793      554.95676           3739 
      4000   1.9195         302.10271     -1973046.2     -1973046.2     -1955391.3      94.557045      5785467.1      101.72002      101.72002      559.14645      2.3611978      510.44613           3839 
      4100   1.9695         302.19824     -1973188.6     -1973188.6     -1955528.1     -94.630136      5786956.1      101.72874      101.72874      559.19441      2.369434       466.00547           3939 
      4200   2.0195         299.90807     -1973393.8     -1973393.8     -1955867.2     -37.203938      5787019.6      101.72912      101.72912      559.19646      2.3717741      421.66565           4039 
      4300   2.0695         298.20081     -1973573.9     -1973573.9     -1956147.1      20.782882      5786659.4      101.72701      101.72701      559.18486      2.3830006      377.38972           4139 
      4400   2.1195         298.56865     -1973678.2     -1973678.2     -1956229.9      116.72243      5785712.3      101.72146      101.72146      559.15435      2.3609016      333.29339           4239 
      4500   2.1695         299.57157     -1973658.7     -1973658.7     -1956151.8      22.350881      5785460.4      101.71998      101.71998      559.14623      2.3659676      289.26343           4339 
      4600   2.2195         301.10779     -1973642.3     -1973642.3     -1956045.6      87.412972      5782682.5      101.7037       101.7037       559.05673      2.379798       245.2819            4439 
      4700   2.2695         301.58712     -1973697       -1973697       -1956072.3     -309.35855      5780441.6      101.69056      101.69056      558.9845       2.3445702      201.45091           4539 
      4800   2.3195         300.5893      -1973822.5     -1973822.5     -1956256.1     -100.63767      5777123.6      101.6711       101.6711       558.87753      2.3960482      157.59945           4639 
      4900   2.3695         298.38759     -1973921.8     -1973921.8     -1956484.1      36.389619      5772934.4      101.64651      101.64651      558.74241      2.3666123      113.86588           4739 
      5000   2.4195         298.60701     -1974011.2     -1974011.2     -1956560.6      104.33327      5770129.1      101.63005      101.63005      558.65189      2.367869       70.192705           4839 
      5100   2.4695         299.37446     -1973975.2     -1973975.2     -1956479.7     -166.7212       5768250.8      101.61902      101.61902      558.59126      2.3759665      26.576104           4939 
      5161   2.5            300.41055     -1973950.8     -1973950.8     -1956394.9      272.16927      5766602.9      101.60934      101.60934      558.53807      2.3985896      0                   5000 
Loop time of 2177.22 on 6 procs for 5000 steps with 452112 atoms

Performance: 0.099 ns/day, 241.914 hours/ns, 2.297 timesteps/s
99.8% CPU use with 6 MPI tasks x 1 OpenMP threads

MPI task timing breakdown:
Section |  min time  |  avg time  |  max time  |%varavg| %total
---------------------------------------------------------------
Pair    | 1731.1     | 1857.7     | 2102.6     | 395.2 | 85.32
Neigh   | 16.464     | 16.807     | 17.266     |   5.9 |  0.77
Comm    | 4.8132     | 246.98     | 370.65     |1088.1 | 11.34
Output  | 2.8388     | 3.0609     | 3.2682     |   8.5 |  0.14
Modify  | 42.798     | 46.777     | 52.66      |  56.5 |  2.15
Other   |            | 5.933      |            |       |  0.27

Nlocal:          75352 ave       75842 max       74376 min
Histogram: 2 0 0 0 0 0 0 0 0 4
Nghost:        36913.2 ave       39215 max       32449 min
Histogram: 2 0 0 0 0 0 0 0 0 4
Neighs:              0 ave           0 max           0 min
Histogram: 6 0 0 0 0 0 0 0 0 0
FullNghs:  1.42527e+07 ave 1.44947e+07 max 1.37775e+07 min
Histogram: 2 0 0 0 0 0 0 0 0 4

Total # of neighbors = 85516492
Ave neighs/atom = 189.14891
Neighbor list builds = 37
Dangerous builds = 0

write_restart equil.init
System init for write_restart ...
write_data    equil.data
System init for write_data ...
Total wall time: 0:38:19
