LAMMPS (29 Sep 2021)
  using 1 OpenMP thread(s) per MPI task
Reading data file ...
  orthogonal box = (-0.72602232 -0.72907951 0.0000000) to (101.94341 101.94647 530.53600)
  2 by 2 by 6 MPI processor grid
  reading atoms ...
  425652 atoms
  reading velocities ...
  425652 velocities
  read_data CPU = 4.896 seconds
213003 atoms in group g_left
212649 atoms in group g_right

CITE-CITE-CITE-CITE-CITE-CITE-CITE-CITE-CITE-CITE-CITE-CITE-CITE

Your simulation uses code contributions which should be cited:
- GPU package (short-range, long-range and three-body potentials):
The log file lists these citations in BibTeX format.

CITE-CITE-CITE-CITE-CITE-CITE-CITE-CITE-CITE-CITE-CITE-CITE-CITE


--------------------------------------------------------------------------
- Using acceleration for eam/alloy:
-  with 12 proc(s) per device.
-  Horizontal vector operations: ENABLED
-  Shared memory system: No
--------------------------------------------------------------------------
Device 0: Tesla V100-SXM2-32GB, 80 CUs, 28/32 GB, 1.5 GHZ (Mixed Precision)
Device 1: Tesla V100-SXM2-32GB, 80 CUs, 1.5 GHZ (Mixed Precision)
--------------------------------------------------------------------------

Initializing Device and compiling on process 0...Done.
Initializing Devices 0-1 on core 0...Done.
Initializing Devices 0-1 on core 1...Done.
Initializing Devices 0-1 on core 2...Done.
Initializing Devices 0-1 on core 3...Done.
Initializing Devices 0-1 on core 4...Done.
Initializing Devices 0-1 on core 5...Done.
Initializing Devices 0-1 on core 6...Done.
Initializing Devices 0-1 on core 7...Done.
Initializing Devices 0-1 on core 8...Done.
Initializing Devices 0-1 on core 9...Done.
Initializing Devices 0-1 on core 10...Done.
Initializing Devices 0-1 on core 11...Done.

Setting up Verlet run ...
  Unit style    : metal
  Current step  : 0
  Time step     : 0.00025
Per MPI rank memory allocation (min/avg/max) = 8.281 | 10.12 | 11.06 Mbytes
Step Time Temp Press PotEng KinEng TotEng Volume 
       0            0    8482.6685    85942.646   -1769098.6    466713.96   -1302384.7    5592719.4 
     100        0.025    8482.0767    86066.342   -1769129.5     466681.4   -1302448.1    5582177.7 
     200         0.05    8481.7639    86220.207   -1769116.8    466664.19   -1302452.6    5571636.1 
     300        0.075      8480.81    86379.306   -1769073.4    466611.71   -1302461.7    5561094.5 
     400          0.1    8482.4459    86537.843   -1769113.4    466701.71   -1302411.7    5550552.8 
     500        0.125    8482.1452    86709.269   -1769104.4    466685.17   -1302419.2    5540011.2 
     600         0.15    8481.9398    86862.104   -1769112.7    466673.87   -1302438.8    5529469.5 
     700        0.175     8482.663     87031.08   -1769105.2    466713.66   -1302391.6    5518927.9 
     800          0.2    8482.3858    87184.404   -1769114.4     466698.4     -1302416    5508386.3 
     900        0.225     8481.774    87342.915   -1769098.5    466664.75   -1302433.8    5497844.6 
    1000         0.25    8482.4346      87514.1   -1769093.1    466701.09     -1302392      5487303 
    1100        0.275    8482.6088    87675.891   -1769121.9    466710.67   -1302411.2    5476761.3 
    1200          0.3    8481.7156    87839.017   -1769093.3    466661.53   -1302431.8    5466219.7 
    1300        0.325    8483.0032    88004.059   -1769120.5    466732.38   -1302388.1    5455678.1 
    1400         0.35    8482.4118    88184.986   -1769099.2    466699.84   -1302399.3    5445136.4 
    1500        0.375    8481.8506     88347.26   -1769098.1    466668.96   -1302429.1    5434594.8 
    1600          0.4    8482.7759    88508.669   -1769114.8    466719.87   -1302394.9    5424053.1 
    1700        0.425    8481.7252    88675.164   -1769088.1    466662.06   -1302426.1    5413511.5 
    1800         0.45    8481.5264    88812.749   -1769106.3    466651.13   -1302455.1    5402969.9 
    1900        0.475    8482.3318    88989.406   -1769109.1    466695.43   -1302413.6    5392428.2 
    2000          0.5    8481.9328    89171.713   -1769107.6    466673.48   -1302434.1    5381886.6 
    2100        0.525    8481.7025    89358.761   -1769112.2    466660.81   -1302451.4    5371344.9 
    2200         0.55     8482.318    89544.835   -1769101.8    466694.68   -1302407.2    5360803.3 
    2300        0.575    8482.1697    89695.058   -1769107.5    466686.51     -1302421    5350261.7 
    2400          0.6    8481.6258    89842.363   -1769099.4    466656.59   -1302442.8      5339720 
    2500        0.625    8482.3882    90018.597     -1769115    466698.54   -1302416.4    5329178.4 
    2600         0.65    8482.0338    90208.311   -1769121.3    466679.04   -1302442.3    5318636.8 
    2700        0.675    8481.7503    90384.714   -1769122.3    466663.44   -1302458.9    5308095.1 
    2800          0.7    8484.4715    90514.876     -1769245    466813.16   -1302431.9    5297553.5 
    2900        0.725    8488.0184    90649.747   -1769458.7    467008.31   -1302450.4    5287011.8 
    3000         0.75    8480.3295    91228.493   -1769058.6    466585.27   -1302473.3    5276470.2 
    3100        0.775    8469.6106    92742.042   -1768435.5    465995.52   -1302439.9    5265928.6 
    3200          0.8    8453.7522     94761.35   -1767573.3    465122.99   -1302450.3    5255386.9 
    3300        0.825    8433.7626    96793.882   -1766481.7    464023.17   -1302458.5    5244845.3 
    3400         0.85    8416.0558    98792.728   -1765456.2    463048.95   -1302407.3    5234303.6 
    3500        0.875    8396.0039    100797.02     -1764378     461945.7   -1302432.3      5223762 
    3600          0.9    8375.8165    102857.09   -1763280.9    460834.99   -1302445.9    5213220.4 
    3700        0.925    8354.7762    105231.62   -1762071.4    459677.36     -1302394    5202678.7 
    3800         0.95    8321.5589    108178.34   -1760265.3    457849.76   -1302415.5    5192137.1 
    3900        0.975    8284.9445    111565.76   -1758282.5    455835.25   -1302447.3    5181595.4 
    4000            1    8244.0684    115250.77   -1756018.7    453586.25   -1302432.5    5171053.8 
    4100        1.025    8201.9875    119077.67   -1753719.5    451270.97   -1302448.6    5160512.2 
    4200         1.05    8160.3357    122958.34   -1751388.8     448979.3   -1302409.5    5149970.5 
    4300        1.075    8110.0043    126994.69   -1748641.7    446210.08   -1302431.6    5139428.9 
    4400          1.1    8056.5973    131222.01   -1745706.4    443271.65   -1302434.7    5128887.2 
    4500        1.125    8002.0067    135512.44   -1742680.5    440268.09   -1302412.4    5118345.6 
    4600         1.15     7944.944    139919.38   -1739578.3    437128.52   -1302449.7      5107804 
    4700        1.175    7888.1673    144758.06   -1736413.8    434004.68   -1302409.2    5097262.3 
    4800          1.2    7830.0113    149886.65   -1733232.1    430804.95   -1302427.1    5086720.7 
    4900        1.225    7771.2517    155007.09   -1730011.1    427572.01   -1302439.1      5076179 
    5000         1.25         7712    160328.38   -1726706.3       424312   -1302394.3    5065637.4 
    5100        1.275    7653.0397    165685.07   -1723480.7    421068.02   -1302412.7    5055095.8 
    5200          1.3     7594.522    170967.29   -1720272.9     417848.4   -1302424.5    5044554.1 
    5300        1.325    7534.7219    176387.99   -1716954.3    414558.22   -1302396.1    5034012.5 
    5400         1.35     7475.436     182010.2   -1713720.4    411296.32     -1302424    5023470.8 
    5500        1.375    7415.4118    187643.21   -1710454.6    407993.81   -1302460.8    5012929.2 
    5600          1.4    7354.7538    193294.62   -1707065.5    404656.42     -1302409    5002387.6 
    5700        1.425     7295.473    199021.07   -1703818.3    401394.81   -1302423.5    4991845.9 
    5800         1.45    7234.4645     204768.9   -1700457.2    398038.14   -1302419.1    4981304.3 
    5900        1.475    7173.6192    210549.69   -1697117.8    394690.45   -1302427.4    4970762.6 
    6000          1.5    7115.1992    216312.21   -1693872.6     391476.2   -1302396.4      4960221 
    6100        1.525    7054.8719    222100.03   -1690582.8       388157   -1302425.8    4949679.4 
    6200         1.55    6993.1623    227834.08   -1687212.3    384761.76   -1302450.5    4939137.7 
    6300        1.575    6934.1093    233640.02   -1683953.2    381512.69   -1302440.6    4928596.1 
    6400          1.6    6873.9785    239470.01     -1680673     378204.3   -1302468.7    4918054.4 
    6500        1.625    6812.5303    245301.58   -1677299.6    374823.44   -1302476.1    4907512.8 
    6600         1.65    6754.2995    251173.04   -1674056.1     371619.6   -1302436.5    4896971.2 
    6700        1.675    6693.9569    257051.38   -1670745.4    368299.57   -1302445.8    4886429.5 
    6800          1.7    6635.0353    262975.62   -1667458.4    365057.72   -1302400.7    4875887.9 
    6900        1.725    6574.9564    268942.37   -1664172.2    361752.19     -1302420    4865346.2 
    7000         1.75    6514.2986    274914.79   -1660862.9    358414.82   -1302448.1    4854804.6 
    7100        1.775    6453.2073    280885.76   -1657532.3    355053.59   -1302478.7      4844263 
    7200          1.8      6394.75    287044.09   -1654276.8    351837.29   -1302439.5    4833721.3 
    7300        1.825    6332.1344    293113.37   -1650864.9     348392.2   -1302472.7    4823179.7 
    7400         1.85    6273.1493     299256.8   -1647636.5    345146.86   -1302489.7      4812638 
    7500        1.875    6211.6883    305907.52   -1644213.3    341765.29     -1302448    4802096.4 
    7600          1.9     6158.855    311580.54   -1641331.2    338858.42   -1302472.8    4791554.8 
    7700        1.925    6162.9055    313580.24   -1641562.7    339081.27   -1302481.4    4781013.1 
    7800         1.95    6146.6881    313705.43   -1640635.2    338188.99   -1302446.2    4770471.5 
    7900        1.975    6115.3276    314487.65     -1638942    336463.55   -1302478.4    4759929.8 
    8000            2    6125.9485     315896.2   -1639527.7    337047.91   -1302479.8    4749388.2 
    8100        2.025    6101.0591    318293.47   -1638135.5     335678.5     -1302457    4738846.6 
    8200         2.05    6086.9785    319758.06   -1637377.2    334903.79   -1302473.4    4728304.9 
    8300        2.075    6103.2418     320146.9   -1638244.5    335798.59   -1302445.9    4717763.3 
    8400          2.1    6064.7007    321088.39   -1636153.2    333678.08   -1302475.1    4707221.6 
    8500        2.125    6086.5826    322085.67   -1637324.5    334882.01   -1302442.4      4696680 
    8600         2.15    6062.7998    323654.97   -1636052.8    333573.48   -1302479.4    4686138.4 
    8700        2.175    6067.0797    324456.02     -1636263    333808.97     -1302454    4675596.7 
    8800          2.2    6066.2321    324924.06   -1636250.2    333762.33   -1302487.9    4665055.1 
    8900        2.225    6031.4019    326683.08   -1634324.8    331845.99   -1302478.8    4654513.4 
    9000         2.25    6003.6858    330306.73   -1632828.3    330321.05   -1302507.2    4643971.8 
    9100        2.275    5941.3648    333546.75   -1629360.8    326892.17   -1302468.6    4633430.2 
    9200          2.3    5913.0269    337393.93   -1627809.3    325333.03   -1302476.2    4622888.5 
    9300        2.325    5851.4718    341450.68   -1624409.8    321946.28   -1302463.5    4612346.9 
    9400         2.35    5811.9131    344879.36   -1622232.9    319769.77   -1302463.2    4601805.2 
    9500        2.375    5755.5243    348668.36   -1619117.3    316667.28   -1302450.1    4591263.6 
    9600          2.4    5712.2933    353771.13   -1616758.6    314288.72   -1302469.9      4580722 
    9700        2.425    5662.6445    358444.46   -1614007.5    311557.06   -1302450.4    4570180.3 
    9800         2.45    5604.7259    363546.74   -1610840.9     308370.4   -1302470.5    4559638.7 
    9900        2.475    5556.1147    369955.33   -1608142.1    305695.82   -1302446.3      4549097 
   10000          2.5    5504.5213    376307.76   -1605325.8    302857.17   -1302468.6    4538555.4 
   10100        2.525    5454.1491    382701.85   -1602553.6     300085.7   -1302467.9    4528013.8 
   10200         2.55    5402.4853    389455.48   -1599669.3    297243.17   -1302426.2    4517472.1 
   10300        2.575    5345.9565    396342.05   -1596574.4    294132.98   -1302441.4    4506930.5 
   10400          2.6    5288.5425    403595.43   -1593356.4    290974.07   -1302382.3    4496388.9 
   10500        2.625    5228.3004    411392.56   -1590057.1    287659.57   -1302397.5    4485847.2 
   10600         2.65    5161.1935    419188.03   -1586334.5    283967.37   -1302367.1    4475305.6 
   10700        2.675    5092.7141    427080.83   -1582595.3    280199.66   -1302395.6    4464763.9 
   10800          2.7    5022.1081    435310.35     -1578713    276314.93   -1302398.1    4454222.3 
   10900        2.725    4949.7892    443728.21   -1574694.8    272335.97   -1302358.8    4443680.7 
   11000         2.75    4870.7908    452400.07   -1570386.1     267989.5   -1302396.6      4433139 
   11100        2.775    4790.7087    461385.87   -1565998.7     263583.4   -1302415.3    4422597.4 
   11200          2.8    4704.7669    470254.29   -1561227.6    258854.91   -1302372.7    4412055.7 
   11300        2.825    4624.9805     478793.6   -1556865.2    254465.08   -1302400.1    4401514.1 
   11400         2.85    4545.4432    487034.92   -1552453.8    250088.97   -1302364.8    4390972.5 
   11500        2.875    4467.1137    495231.48   -1548179.8     245779.3   -1302400.5    4380430.8 
   11600          2.9    4390.2055     503091.3   -1543958.5    241547.83   -1302410.7    4369889.2 
   11700        2.925    4322.4201    510845.82     -1540183     237818.3   -1302364.7    4359347.5 
   11800         2.95    4253.4027     518332.2   -1536402.6    234020.98   -1302381.6    4348805.9 
   11900        2.975    4190.9721    525574.88   -1532987.5    230586.07   -1302401.5    4338264.3 
   12000            3    4132.4335    532767.32   -1529732.4    227365.29   -1302367.1    4327722.6 
   12100        3.025    4073.2264    539456.04   -1526489.7    224107.74   -1302381.9      4317181 
   12200         3.05      4017.22    545744.66   -1523405.8    221026.28   -1302379.5    4306639.3 
   12300        3.075     3963.679     551582.9     -1520418    218080.47   -1302337.6    4296097.7 
   12400          3.1    3910.2267    557438.31   -1517500.7    215139.54   -1302361.2    4285556.1 
   12500        3.125    3864.9599    561754.87     -1515025    212648.97     -1302376    4275014.4 
   12600         3.15    3865.8432    562524.34   -1515051.3    212697.57   -1302353.7    4264472.8 
   12700        3.175    3854.0068     561488.9   -1514422.9    212046.34   -1302376.5    4253931.1 
   12800          3.2    3833.8089    561357.45   -1513275.3    210935.05   -1302340.3    4243389.5 
   12900        3.225    3834.7304    562537.27   -1513361.6    210985.76   -1302375.8    4232847.9 
   13000         3.25    3813.6679     564516.8   -1512184.5     209826.9   -1302357.6    4222306.2 
   13100        3.275    3813.7862    565855.47   -1512216.5    209833.41   -1302383.1    4211764.6 
   13200          3.3    3823.4508    566544.32   -1512712.6    210365.15   -1302347.4    4201222.9 
   13300        3.325     3794.702    568198.81   -1511142.5     208783.4   -1302359.1    4190681.3 
   13400         3.35    3821.2661       570047   -1512552.7    210244.95   -1302307.7    4180139.7 
   13500        3.375    3812.3235    572649.46   -1512075.6    209752.93   -1302322.7      4169598 
   13600          3.4    3824.6643    574202.41   -1512739.3    210431.92   -1302307.3    4159056.4 
   13700        3.425    3833.2955    575095.88   -1513250.4    210906.81   -1302343.6    4148514.7 
   13800         3.45    3824.8872    576819.26   -1512768.4    210444.19   -1302324.2    4137973.1 
   13900        3.475    3818.7789    580633.51   -1512452.8    210108.11   -1302344.6    4127431.5 
   14000          3.5    3780.7547    585709.63   -1510315.3    208016.03   -1302299.2    4116889.8 
   14100        3.525     3768.593    590614.94   -1509686.9    207346.89     -1302340    4106348.2 
   14200         3.55    3723.9112    595942.49   -1507224.9    204888.52   -1302336.4    4095806.5 
   14300        3.575    3702.5745    601484.15   -1506029.7    203714.57   -1302315.1    4085264.9 
   14400          3.6    3652.6538    607103.18   -1503304.2    200967.95   -1302336.2    4074723.3 
   14500        3.625    3615.6593    614165.52   -1501257.9    198932.53   -1302325.3    4064181.6 
   14600         3.65     3565.908    621420.85   -1498561.4    196195.23   -1302366.2      4053640 
   14700        3.675    3497.9404    629312.38   -1494803.6    192455.67   -1302347.9    4043098.3 
   14800          3.7    3435.9763    639309.09   -1491428.3    189046.42   -1302381.9    4032556.7 
   14900        3.725    3362.9787    649528.08   -1487421.4    185030.11   -1302391.3    4022015.1 
   15000         3.75    3291.3021    659413.48     -1483431    181086.49   -1302344.6    4011473.4 
   15100        3.775    3210.5767    669883.04   -1479003.4       176645   -1302358.4    4000931.8 
   15200          3.8     3128.702    680608.03   -1474447.9    172140.28   -1302307.6    3990390.1 
   15300        3.825    3048.4213    691535.55   -1470048.8    167723.25   -1302325.5    3979848.5 
   15400         3.85    2963.9401    702692.85   -1465358.6    163075.12   -1302283.5    3969306.9 
   15500        3.875    2880.0837    713589.33   -1460769.7    158461.37   -1302308.3    3958765.2 
   15600          3.9    2791.1082    724479.54     -1455840    153565.96     -1302274    3948223.6 
   15700        3.925    2708.0949    735361.86   -1451306.9     148998.6   -1302308.3    3937681.9 
   15800         3.95    2624.6306    745765.29   -1446742.5    144406.41   -1302336.1    3927140.3 
   15900        3.975    2545.8664    755648.86   -1442390.5    140072.83   -1302317.7    3916598.7 
   16000            4    2467.0399    765285.77   -1438075.1    135735.82   -1302339.3      3906057 
   16100        4.025    2389.2842    774215.22   -1433768.6    131457.73   -1302310.9    3895515.4 
   16200         4.05    2315.7337    782939.22   -1429747.4    127410.99   -1302336.4    3884973.7 
   16300        4.075    2244.7422    791490.56   -1425829.7    123505.06   -1302324.6    3874432.1 
   16400          4.1    2176.5186    800285.89   -1422109.9    119751.42   -1302358.4    3863890.5 
   16500        4.125    2109.4721    809222.44     -1418435    116062.55   -1302372.5    3853348.8 
   16600         4.15    2046.1989    817718.81   -1414902.4    112581.27   -1302321.1    3842807.2 
   16700        4.175    1984.1421    825785.83   -1411510.1    109166.93   -1302343.2    3832265.5 
   16800          4.2    1925.5659    833742.54   -1408260.7    105944.08   -1302316.6    3821723.9 
   16900        4.225    1864.6667    842062.23   -1404946.5    102593.42   -1302353.1    3811182.3 
   17000         4.25      1816.88    849974.39   -1402288.4    99964.209   -1302324.2    3800640.6 
   17100        4.275     1763.314     858371.1   -1399371.1    97017.026   -1302354.1      3790099 
   17200          4.3    1708.0967    867254.71   -1396288.2    93978.987   -1302309.2    3779557.3 
   17300        4.325    1662.6042    875917.13   -1393807.4    91476.001   -1302331.4    3769015.7 
   17400         4.35    1623.2369    883675.48   -1391596.4    89310.026   -1302286.3    3758474.1 
   17500        4.375    1601.4818    888683.85   -1390414.8    88113.063   -1302301.7    3747932.4 
   17600          4.4    1612.2458    889589.91   -1391031.3    88705.294     -1302326    3737390.8 
   17700        4.425    1616.6047    888631.06   -1391232.1    88945.121     -1302287    3726849.1 
   17800         4.45    1628.2751    889046.98   -1391848.9    89587.223   -1302261.7    3716307.5 
   17900        4.475     1654.561    891405.38   -1393215.6    91033.464   -1302182.2    3705765.9 
   18000          4.5    1656.1581    894249.81   -1393100.7     91121.34   -1301979.3    3695224.2 
   18100        4.525    1722.0881    897180.88   -1394260.5    94748.788   -1299511.7    3684682.6 
   18200         4.55    1771.9969    901627.69   -1387501.4    97494.756   -1290006.6      3674141 
   18300        4.575    1855.4853    909980.14   -1382015.9    102088.26   -1279927.6    3663599.3 
   18400          4.6     1896.055    916916.18   -1376162.7     104320.4   -1271842.3    3653057.7 
   18500        4.625    1933.4554    929917.21   -1368388.8    106378.16   -1262010.7      3642516 
   18600         4.65    2005.9588    942927.12   -1360938.4    110367.27   -1250571.2    3631974.4 
   18700        4.675    1986.4413    956204.34   -1349844.7    109293.42   -1240551.2    3621432.8 
   18800          4.7    2059.8483    974919.97   -1340726.4    113332.26   -1227394.2    3610891.1 
   18900        4.725    2152.1353    994311.88     -1327920    118409.86   -1209510.2    3600349.5 
   19000         4.75    2230.9363    1014189.9   -1316195.8    122745.47   -1193450.3    3589807.8 
   19100        4.775    2288.1524    1037834.4   -1303025.2    125893.48   -1177131.7    3579266.2 
   19200          4.8    2432.5199    1062569.2     -1290553    133836.54   -1156716.5    3568724.6 
   19300        4.825    2534.2831    1084728.7   -1276480.2    139435.52   -1137044.7    3558182.9 
   19400         4.85    2650.6894    1109210.4   -1263749.4    145840.16   -1117909.2    3547641.3 
   19500        4.875    2773.1607    1133052.6   -1249702.9     152578.5   -1097124.4    3537099.6 
   19600          4.9    2905.6309    1157661.1   -1236479.1    159866.97   -1076612.2      3526558 
   19700        4.925    3009.3549    1182944.9     -1222351    165573.84   -1056777.2    3516016.4 
   19800         4.95    3130.0372      1208091   -1208903.9    172213.74   -1036690.2    3505474.7 
   19900        4.975    3249.5831    1233918.1     -1195293    178791.12   -1016501.9    3494933.1 
   20000            5    3379.8866    1260598.9   -1182288.2    185960.38   -996327.85    3484391.4 
   20100        5.025    3496.6658    1286979.1   -1169277.2    192385.54   -976891.71    3473849.8 
   20200         5.05    3616.8445    1313192.3   -1156441.2    198997.74   -957443.44    3463308.2 
   20300        5.075    3742.2771    1340213.5   -1143480.2       205899    -937581.2    3452766.5 
   20400          5.1    3848.2524    1367713.5   -1129958.9    211729.73   -918229.21    3442224.9 
   20500        5.125     3921.465    1395414.6   -1115090.4    215757.87   -899332.54    3431683.2 
   20600         5.15    4002.2686    1423040.9     -1100112    220203.66   -879908.35    3421141.6 
   20700        5.175    4147.1433    1447174.6   -1088674.9    228174.62   -860500.27      3410600 
   20800          5.2    4397.4856    1462918.8   -1083497.9    241948.38   -841549.51    3400058.3 
   20900        5.225    4615.4137      1469757   -1076518.2    253938.73   -822579.47    3389516.7 
   21000         5.25    4832.6499    1476116.9   -1069603.8    265890.99   -803712.76      3378975 
   21100        5.275    5099.6006    1484177.2   -1065556.2    280578.55   -784977.61    3368433.4 
   21200          5.3    5351.1067    1494394.5   -1060794.6    294416.34   -766378.27    3357891.8 
   21300        5.325    5619.4573    1505485.8   -1057123.3    309180.91   -747942.41    3347350.1 
   21400         5.35    5841.8399    1519885.8   -1050815.5    321416.34   -729399.13    3336808.5 
   21500        5.375    6034.3612    1538185.2     -1043099     332008.8   -711090.17    3326266.8 
   21600          5.4    6183.0269    1556615.5   -1032925.5    340188.34    -692737.2    3315725.2 
   21700        5.425    6332.7781    1578699.7   -1022647.4    348427.62   -674219.83    3305183.6 
   21800         5.45    6460.3707    1602585.2   -1010891.8    355447.72    -655444.1    3294641.9 
   21900        5.475    6562.0815    1626117.2   -997352.29    361043.82   -636308.47    3284100.3 
   22000          5.5    6643.4979    1650864.5   -982693.49    365523.33   -617170.16    3273558.6 
   22100        5.525    6715.3141    1677847.5   -967623.18    369474.64   -598148.54      3263017 
   22200         5.55    6780.8309    1704718.9   -952514.52    373079.35   -579435.17    3252475.4 
   22300        5.575    6831.8182    1731049.7   -937490.09    375884.66   -561605.44    3241933.7 
   22400          5.6     6855.335    1757430.9   -922243.77    377178.54   -545065.23    3231392.1 
   22500        5.625     6859.949    1785528.4   -907300.93     377432.4   -529868.53    3220850.4 
   22600         5.65    6838.8497    1814846.3    -892354.1    376271.53   -516082.57    3210308.8 
   22700        5.675    6781.5693    1842450.2   -876771.96    373119.97   -503651.99    3199767.2 
   22800          5.7    6701.3643    1871068.2   -861107.57    368707.12   -492400.45    3189225.5 
   22900        5.725    6598.6283    1901039.4   -845110.77    363054.61   -482056.15    3178683.9 
   23000         5.75    6470.6994    1929702.9   -828511.85    356016.01   -472495.85    3168142.2 
   23100        5.775    6359.4317      1956549   -813366.58    349894.09   -463472.49    3157600.6 
   23200          5.8    6277.2974    1980527.8   -800114.51    345375.08   -454739.43      3147059 
   23300        5.825    6267.6519    1999087.4   -790849.95    344844.39   -446005.56    3136517.3 
   23400         5.85    6295.6327    2010785.2   -783887.21    346383.88   -437503.33    3125975.7 
   23500        5.875    6338.9475    2018679.4   -777786.41    348767.06   -429019.36      3115434 
   23600          5.9     6419.277    2026082.2   -773784.13    353186.76   -420597.37    3104892.4 
   23700        5.925    6536.3656    2033623.1   -771593.18    359628.94   -411964.24    3094350.8 
   23800         5.95    6673.8134    2043394.3   -769556.51    367191.28   -402365.24    3083809.1 
   23900        5.975    6834.7466    2055608.5    -766671.6    376045.77   -390625.82    3073267.5 
   24000            6    7048.6271    2069648.7   -764099.73    387813.42   -376286.31    3062725.8 
   24100        6.025    7255.7019    2086253.3   -759440.27    399206.61   -360233.66    3052184.2 
   24200         6.05    7442.7648    2106921.1   -753168.87    409498.76   -343670.11    3041642.6 
   24300        6.075    7626.5129    2129524.4   -745812.99    419608.53   -326204.47    3031100.9 
   24400          6.1    7851.6899    2154790.2   -739051.25     431997.7   -307053.54    3020559.3 
   24500        6.125    8054.8079    2181901.4   -729787.52    443173.19   -286614.32    3010017.6 
   24600         6.15    8255.3151    2210340.8   -719423.29    454205.04   -265218.25      2999476 
   24700        6.175    8473.3644    2240386.2   -709514.43    466202.05   -243312.37    2988934.4 
   24800          6.2    8662.1937    2273966.4   -697300.45    476591.39   -220709.06    2978392.7 
   24900        6.225    8846.1837      2310178   -684338.59    486714.46   -197624.13    2967851.1 
   25000         6.25    9016.8618    2348220.7   -670389.99    496105.12   -174284.86    2957309.4 
   25100        6.275    9149.7856    2386573.9   -654335.69    503418.55   -150917.14    2946767.8 
   25200          6.3    9255.9554    2426029.3   -636966.67    509259.98   -127706.69    2936226.2 
   25300        6.325    9360.5022    2465510.2   -619596.23    515012.12   -104584.12    2925684.5 
   25400         6.35    9443.1608      2505223   -601268.53    519559.97   -81708.559    2915142.9 
   25500        6.375     9530.931    2545168.6   -583444.87    524389.06    -59055.81    2904601.2 
   25600          6.4    9633.0831    2582546.6   -566444.07    530009.44    -36434.63    2894059.6 
   25700        6.425    9780.3965    2615431.5   -551992.81    538114.58   -13878.234      2883518 
   25800         6.45     9946.566    2641692.3   -538523.51    547257.17    8733.6616    2872976.3 
   25900        6.475    10106.983    2664417.2   -524347.42    556083.25    31735.833    2862434.7 
   26000          6.5    10215.112    2689875.7   -507476.39    562032.53    54556.139    2851893.1 
   26100        6.525    10339.509    2720515.6   -491428.37    568876.79     77448.42    2841351.4 
   26200         6.55    10456.329    2754171.2   -475149.99     575304.2    100154.21    2830809.8 
   26300        6.575    10520.878    2785237.6   -456048.83    578855.65    122806.83    2820268.1 
   26400          6.6    10583.705    2816526.3   -437286.69    582312.38    145025.69    2809726.5 
   26500        6.625    10621.194    2848359.2   -417631.13    584375.02    166743.89    2799184.9 
   26600         6.65    10653.546    2882017.3   -398332.71    586155.03    187822.31    2788643.2 
   26700        6.675    10671.829    2917429.8   -379206.48    587160.93    207954.46    2778101.6 
   26800          6.7    10665.292    2954129.8   -359651.49    586801.28    227149.78    2767559.9 
   26900        6.725    10631.024    2991243.5   -339312.54    584915.86    245603.32    2757018.3 
   27000         6.75    10585.253    3030035.3   -319585.05    582397.56    262812.51    2746476.7 
   27100        6.775    10500.158    3070700.9   -298686.61    577715.64    279029.03      2735935 
   27200          6.8    10388.584    3111247.9   -277330.06    571576.89    294246.84    2725393.4 
   27300        6.825    10260.729    3151326.1   -255843.98    564542.32    308698.34    2714851.7 
   27400         6.85    10112.199    3192497.3   -234254.84    556370.24     322115.4    2704310.1 
   27500        6.875    9948.8198    3233764.8    -212578.4    547381.18    334802.78    2693768.5 
   27600          6.9    9789.9433    3272342.9   -192072.29    538639.84    346567.55    2683226.8 
   27700        6.925    9633.7309    3307280.7   -172357.83    530045.08    357687.25    2672685.2 
   27800         6.95    9511.9462      3340025   -154925.96    523344.52    368418.56    2662143.5 
   27900        6.975    9342.8397    3372662.2   -135684.68    514040.33    378355.65    2651601.9 
   28000            7    9154.1468    3407722.3   -115885.91     503658.5    387772.59    2641060.3 
   28100        7.025    8920.6163    3445509.3    -94042.97    490809.72    396766.75    2630518.6 
   28200         7.05    8658.8883    3483335.1   -70939.181    476409.52    405470.34      2619977 
   28300        7.075    8412.4976    3521646.5   -48861.604    462853.18    413991.58    2609435.3 
   28400          7.1     8138.414    3561105.3   -25247.272    447773.18    422525.91    2598893.7 
   28500        7.125    7880.5653    3602935.7   -2495.5969    433586.42    431090.82    2588352.1 
   28600         7.15    7631.0821    3646184.1    20250.739    419859.92    440110.66    2577810.4 
   28700        7.175    7391.6953    3691354.7    42810.084    406688.93    449499.02    2567268.8 
   28800          7.2    7168.9864    3739407.4    65212.375    394435.55    459647.92    2556727.1 
   28900        7.225    6934.5776    3789814.6     89050.77    381538.45    470589.22    2546185.5 
   29000         7.25    6766.8201    3840259.8    109813.09    372308.48    482121.57    2535643.9 
   29100        7.275    6569.9435    3889583.7    132811.13    361476.39    494287.52    2525102.2 
   29200          7.3    6444.7918    3938550.1     152264.4    354590.58    506854.98    2514560.6 
   29300        7.325    6338.8265    3982444.3    171227.78     348760.4    519988.18    2504018.9 
   29400         7.35    6284.2659    4021965.1    188143.93    345758.49    533902.42    2493477.3 
   29500        7.375    6244.6604    4061108.9    205011.05     343579.4    548590.46    2482935.7 
   29600          7.4    6252.0218    4103144.4    220049.89    343984.43    564034.32      2472394 
   29700        7.425    6245.3651    4148445.4    236623.46    343618.18    580241.64    2461852.4 
   29800         7.45    6302.1991    4196403.2    250635.48    346745.17    597380.65    2451310.7 
   29900        7.475    6341.1499    4246064.5    266534.72    348888.23    615422.95    2440769.1 
   30000          7.5    6384.4824    4298634.1    283187.43    351272.37     634459.8    2430227.5 
   30100        7.525    6432.9657    4353037.7    300209.53    353939.91    654149.44    2419685.8 
   30200         7.55    6468.6317    4413068.3    318699.88    355902.24    674602.12    2409144.2 
   30300        7.575    6461.7766    4475659.9    340045.99    355525.07    695571.06    2398602.5 
   30400          7.6    6454.9862      4540834    361983.16    355151.47    717134.63    2388060.9 
   30500        7.625    6409.1075    4610112.6    386961.27    352627.24    739588.51    2377519.3 
   30600         7.65    6357.7344    4678371.9    412453.39     349800.7    762254.09    2366977.6 
   30700        7.675    6285.3942    4746606.1    439877.96    345820.57    785698.53      2356436 
   30800          7.7    6255.2634    4813041.7    466513.14    344162.78    810675.92    2345894.3 
   30900        7.725    6287.6019    4880835.6    492418.19    345942.03    838360.22    2335352.7 
   31000         7.75    6342.5021    4951762.3     521925.3    348962.63    870887.93    2324811.1 
   31100        7.775    6492.2434    5030031.1    552113.95    357201.35     909315.3    2314269.4 
   31200          7.8    6716.8603    5114986.7    583492.82    369559.71    953052.53    2303727.8 
   31300        7.825    6958.7446    5206927.3    616820.21    382868.11    999688.32    2293186.1 
   31400         7.85     7231.456    5302073.9    651353.11    397872.61    1049225.7    2282644.5 
   31500        7.875    7574.7284    5400717.7    684014.72    416759.36    1100774.1    2272102.9 
   31600          7.9    7921.9428    5506898.4    718534.12       435863    1154397.1    2261561.2 
   31700        7.925     8266.922    5616376.2     753853.3    454843.65    1208696.9    2251019.6 
   31800         7.95    8599.4991    5727598.4    790672.34    473141.95    1263814.3    2240477.9 
   31900        7.975    8921.8223    5840781.1     828125.2    490876.08    1319001.3    2229936.3 
   32000            8    9253.9022      5953296    865538.25    509147.01    1374685.3    2219394.7 
   32100        8.025    9583.9885    6063286.3    903548.59    527308.27    1430856.9      2208853 
   32200         8.05    9895.6265    6173695.5    942477.97     544454.5    1486932.5    2198311.4 
   32300        8.075    10159.914    6288715.5    984381.27    558995.53    1543376.8    2187769.7 
   32400          8.1    10365.599    6409913.6    1028817.5    570312.23    1599129.8    2177228.1 
   32500        8.125    10515.427    6537096.7      1076481    578555.73    1655036.7    2166686.5 
   32600         8.15    10638.335    6670485.3      1124700     585318.1    1710018.1    2156144.8 
   32700        8.175    10718.644    6806745.7    1174068.9    589736.68    1763805.6    2145603.2 
   32800          8.2    10754.057    6944831.5    1224150.1    591685.11    1815835.2    2135061.5 
   32900        8.225    10821.152    7087884.3      1271758    595376.67    1867134.6    2124519.9 
   33000         8.25    10827.221    7226820.4    1320959.8    595710.54    1916670.4    2113978.3 
   33100        8.275    10922.011    7361106.7    1365286.5    600925.88    1966212.3    2103436.6 
   33200          8.3    11069.715    7487880.4    1406803.7    609052.49    2015856.2      2092895 
   33300        8.325    11327.151    7608661.6    1445213.5    623216.54      2068430    2082353.3 
   33400         8.35    11679.918    7734038.2    1481754.5    642625.72    2124380.2    2071811.7 
   33500        8.375    12063.297    7864737.1    1519821.6     663719.1    2183540.7    2061270.1 
   33600          8.4    12573.531    7999516.9    1554708.8    691792.03    2246500.8    2050728.4 
   33700        8.425    13045.479    8140042.1    1593388.8    717758.48    2311147.3    2040186.8 
   33800         8.45    13568.539    8286046.1    1632313.2     746537.1    2378850.3    2029645.1 
   33900        8.475    14108.706    8438144.8    1671814.4    776256.92    2448071.3    2019103.5 
   34000          8.5    14588.707    8595578.1    1715310.9    802666.43    2517977.3    2008561.9 
   34100        8.525     15080.44      8758443    1759771.6    829721.46    2589493.1    1998020.2 
   34200         8.55    15497.261    8922011.7    1808964.3    852654.83    2661619.1    1987478.6 
   34300        8.575    15849.774    9086256.2    1861486.1    872049.97    2733536.1      1976937 
   34400          8.6    16150.934    9256101.2      1917211    888619.71    2805830.7    1966395.3 
   34500        8.625    16312.152    9439400.7    1979866.2    897489.87      2877356    1955853.7 
   34600         8.65    16442.102    9629586.8    2043177.6    904639.68    2947817.3      1945312 
   34700        8.675    16472.772    9822778.3    2110280.1    906327.12    3016607.2    1934770.4 
   34800          8.7    16448.535     10017785    2177714.7     904993.6    3082708.3    1924228.8 
   34900        8.725    16393.963     10217810    2244032.8    901991.12    3146023.9    1913687.1 
   35000         8.75     16256.71     10414839    2310776.3    894439.44    3205215.7    1903145.5 
   35100        8.775     16102.44     10609622    2376544.4    885951.57      3262496    1892603.8 
   35200          8.8    15848.109     10801480    2445751.2    871958.34    3317709.6    1882062.2 
   35300        8.825    15452.515     11001586    2521766.1    850192.91      3371959    1871520.6 
   35400         8.85    14963.299     11214641    2601600.6     823276.4      3424877    1860978.9 
   35500        8.875    14386.725     11436625    2686940.5    791553.43    3478493.9    1850437.3 
   35600          8.9    13768.248     11660203    2774473.8    757524.99    3531998.8    1839895.6 
   35700        8.925    13149.933     11885370    2861022.6    723505.48      3584528      1829354 
   35800         8.95    12619.465     12110587    2943027.1    694319.29    3637346.4    1818812.4 
   35900        8.975    12196.672     12326935    3019075.8    671057.37    3690133.1    1808270.7 
   36000            9    11889.007     12536585    3088363.3    654129.73    3742493.1    1797729.1 
   36100        9.025    11622.722     12745059    3155740.9    639478.77    3795219.7    1787187.4 
   36200         9.05      11350.2     12964096    3224057.9    624484.69    3848542.6    1776645.8 
   36300        9.075    11028.439     13189129    3295437.3     606781.5    3902218.8    1766104.2 
   36400          9.1    10736.728     13419717    3367583.6    590731.68    3958315.3    1755562.5 
   36500        9.125    10496.739     13653682    3440049.6    577527.52    4017577.1    1745020.9 
   36600         9.15    10337.136     13894004    3513526.5    568746.22    4082272.7    1734479.2 
   36700        9.175     10287.04     14144698    3589710.4    565989.96    4155700.3    1723937.6 
   36800          9.2    10409.305     14403868    3671079.3    572716.96    4243796.3      1713396 
   36900        9.225    10660.488     14692524    3764008.2    586536.98    4350545.2    1702854.3 
   37000         9.25    11052.815     15003190    3865664.5    608122.66    4473787.2    1692312.7 
   37100        9.275    11455.596     15329036    3971868.8    630283.55    4602152.3      1681771 
   37200          9.3    11912.264     15660914    4080430.8    655409.31    4735840.1    1671229.4 
   37300        9.325    12479.161     15999035    4187113.3    686599.79    4873713.1    1660687.8 
   37400         9.35    13047.558     16339258    4293750.9    717872.84    5011623.7    1650146.1 
   37500        9.375    13637.831     16685465    4399532.6    750349.53    5149882.1    1639604.5 
   37600          9.4    14003.651     17043350      4517152     770476.8    5287628.8    1629062.8 
   37700        9.425    14131.275     17416164    4644815.5    777498.67    5422314.2    1618521.2 
   37800         9.45    14188.631     17788256    4774177.7    780654.37      5554832    1607979.6 
   37900        9.475    14147.927     18161286    4905662.4    778414.83    5684077.3    1597437.9 
   38000          9.5    14245.259     18533494    5027512.3    783770.04    5811282.4    1586896.3 
   38100        9.525    14610.319     18898919    5136885.4    803855.51      5940741    1576354.6 
   38200         9.55    15234.928     19274556    5240037.7    838221.31    6078259.1      1565813 
   38300        9.575    16007.171     19673540    5346919.7    880709.91    6227629.6    1555271.4 
   38400          9.6    16810.204     20080449    5459757.7    924892.53    6384650.2    1544729.7 
   38500        9.625     17633.46     20502363    5576350.7    970187.86    6546538.5    1534188.1 
   38600         9.65    18500.352     20922423    5692196.3      1017884    6710080.4    1523646.4 
   38700        9.675    19388.645     21355818    5808371.4    1066757.6      6875129    1513104.8 
   38800          9.7    20070.905     21801681    5932927.7    1104295.4      7037223    1502563.2 
   38900        9.725     20366.54     22261440    6075196.7    1120561.2    7195757.9    1492021.5 
   39000         9.75    20360.243     22722968    6228135.7    1120214.7    7348350.4    1481479.9 
   39100        9.775    20118.636     23196339    6386626.8    1106921.5    7493548.3    1470938.2 
   39200          9.8    19770.789     23669487    6543457.2    1087783.1    7631240.3    1460396.6 
   39300        9.825    19259.556     24149313    6702179.6    1059655.2    7761834.8      1449855 
   39400         9.85     18605.63     24635340    6865146.7    1023676.4    7888823.1    1439313.3 
   39500        9.875    17729.194     25124287    7041400.2    975455.13    8016855.3    1428771.7 
   39600          9.9    16806.856     25635103    7223954.3    924708.35    8148662.7      1418230 
   39700        9.925    16048.391     26148831    7401033.7    882977.83    8284011.5    1407688.4 
   39800         9.95    15591.357     26665956    7563678.9    857831.95    8421510.9    1397146.8 
   39900        9.975    15420.214     27185854      7712727    848415.72    8561142.8    1386605.1 
   40000           10    15251.146     27711291    7863933.1    839113.64    8703046.7    1376063.5 
   40100       10.025    14917.777     28254896    8026030.3    820771.75    8846802.1    1365521.8 
   40200        10.05     14566.32     28824988    8193727.3    801434.72      8995162    1354980.2 
   40300       10.075    14383.986     29413743    8362716.6    791402.73    9154119.3    1344438.6 
   40400         10.1    14582.937     30035709    8539582.8    802348.94    9341931.7    1333896.9 
   40500       10.125    15116.264     30685122    8735466.1    831692.44    9567158.6    1323355.3 
   40600        10.15    15743.622     31378888    8945363.7    866209.54    9811573.2    1312813.6 
   40700       10.175    16325.365     32105294    9163800.4    898216.87     10062017      1302272 
   40800         10.2    17048.282     32834029    9384006.4    937991.53     10321998    1291730.4 
   40900       10.225     17744.45     33565932    9605819.1     976294.5     10582114    1281188.7 
   41000        10.25    18180.847     34313278    9839812.8    1000304.9     10840118    1270647.1 
   41100       10.275    18489.099     35101314     10080093    1017264.9     11097358    1260105.4 
   41200         10.3    18815.112     35885208     10314021      1035202     11349223    1249563.8 
   41300       10.325    19605.571     36662749     10524862    1078692.8     11603554    1239022.2 
   41400        10.35    20720.701     37438792     10732572      1140047     11872619    1228480.5 
   41500       10.375    21896.813     38282704     10952324    1204756.3     12157081    1217938.9 
   41600         10.4    22962.259     39170718     11184414    1263376.8     12447791    1207397.2 
   41700       10.425    23975.458     40055534     11421764    1319122.7     12740887    1196855.6 
   41800        10.45    24619.001     40924644     11675981    1354530.3     13030511      1186314 
   41900       10.475    24763.107     41830658     11948453    1362458.9     13310912    1175772.3 
   42000         10.5    24346.049     42774890     12236935    1339512.6     13576448    1165230.7 
   42100       10.525    23524.352     43697174     12533165      1294303     13827468    1154689.1 
   42200        10.55    22416.453     44590815     12832150    1233346.8     14065496    1144147.4 
   42300       10.575    21220.315     45526194     13137810    1167535.6     14305346    1133605.8 
   42400         10.6    20145.503     46511526     13444856    1108399.8     14553256    1123064.1 
   42500       10.625    19659.706     47482334     13732467    1081671.3     14814139    1112522.5 
   42600        10.65    19516.005     48482055     14009251    1073764.9     15083016    1101980.9 
   42700       10.675    19444.168     49547906     14297595    1069812.5     15367408    1091439.2 
   42800         10.7    19384.251     50645899     14601234    1066515.9     15667750    1080897.6 
   42900       10.725     19570.36     51771301     14925841    1076755.5     16002596    1070355.9 
   43000        10.75    20205.518     52917861     15264421    1111701.7     16376122    1059814.3 
   43100       10.775    20938.709     54077775     15625722    1152041.7     16777764    1049272.7 
   43200         10.8    21585.751     55290332     15999882    1187641.7     17187523      1038731 
   43300       10.825    22406.792     56534799     16380026    1232815.2     17612842    1028189.4 
   43400        10.85    23265.016     57794854     16759571    1280034.4     18039605    1017647.7 
   43500       10.875    23985.856     59089666     17141264    1319694.8     18460959    1007106.1 
   43600         10.9    25140.468     60442533     17503152    1383221.3     18886373    996564.45 
   43700       10.925    26466.325     61828227     17865746    1456169.5     19321916    986022.82 
   43800        10.95    27864.231     63207638     18238921    1533081.9     19772003    975481.18 
   43900       10.975    28873.281     64642583     18637011    1588599.5     20225611    964939.54 
   44000           11    29346.263     66144177     19059760    1614622.9     20674383     954397.9 
   44100       11.025    29248.043     67640335     19503063    1609218.8     21112282    943856.26 
   44200        11.05    28467.993     69183809     19964513    1566300.7     21530814    933314.62 
   44300       11.075    27279.509     70759360     20434285    1500910.7     21935195    922772.98 
   44400         11.1    26040.403     72352210     20903069    1432735.4     22335804    912231.34 
   44500       11.125    25218.133     73974313     21361725    1387494.4     22749219     901689.7 
   44600        11.15    25011.058     75682159     21806576    1376101.1     23182677    891148.06 
   44700       11.175    25203.207     77440959     22262245    1386673.1     23648918    880606.42 
   44800         11.2    25507.188     79338763     22756459    1403398.1     24159858    870064.78 
   44900       11.225    26322.875     81363527     23280169    1448276.9     24728445    859523.14 
   45000        11.25    27482.152     83514930     23826529    1512060.1     25338589     848981.5 
   45100       11.275    28450.471     85761628     24398441    1565336.7     25963777    838439.86 
   45200         11.3    29611.404     88049246     24969658    1629210.9     26598869    827898.22 
   45300       11.325    31098.074     90437512     25526447      1711007     27237454    817356.58 
   45400        11.35    32904.623     92866395     26077046    1810402.8     27887449    806814.94 
   45500       11.375    34681.968     95383506     26644110    1908191.8     28552302     796273.3 
   45600         11.4    35546.779     97994882     27258390    1955773.5     29214164    785731.66 
   45700       11.425    35436.724 1.0070398e+08     27912167    1949718.3     29861885    775190.02 
   45800        11.45    34539.592 1.0348333e+08     28591207    1900358.4     30491565    764648.38 
   45900       11.475    33275.221 1.0631976e+08     29277999      1830793     31108792    754106.74 
   46000         11.5    32279.055 1.0921029e+08     29954899    1775984.2     31730883     743565.1 
   46100       11.525    32134.643 1.1225265e+08     30619305    1768038.7     32387344    733023.46 
   46200        11.55    32430.145 1.1548489e+08     31325109    1784297.2     33109406    722481.82 
   46300       11.575    33374.818 1.1902952e+08     32092090    1836272.8     33928363    711940.18 
   46400         11.6    34881.197 1.2279884e+08     32889675    1919153.3     34808829    701398.54 
   46500       11.625    36414.315 1.2675001e+08     33708816    2003505.1     35712321     690856.9 
   46600        11.65    38312.366 1.3080372e+08     34516270    2107935.3     36624205    680315.26 
   46700       11.675    40357.713 1.3503731e+08     35334048    2220469.7     37554518    669773.62 
   46800         11.7    41933.277 1.3945862e+08     36189960    2307156.7     38497116    659231.98 
   46900       11.725    41838.419 1.4404229e+08     37116188    2301937.7     39418126    648690.34 
   47000        11.75    40820.578 1.4883989e+08     38079255    2245936.4     40325191     638148.7 
   47100       11.775    39685.932 1.5375578e+08     39046587    2183508.5     41230095    627607.06 
   47200         11.8    39219.502 1.5888949e+08     40010279    2157845.6     42168125    617065.42 
   47300       11.825    39697.125 1.6439203e+08     41017653    2184124.3     43201778    606523.78 
   47400        11.85    41176.838 1.7042652e+08     42109742    2265537.7     44375280    595982.14 
   47500       11.875    43181.114 1.7689942e+08     43249277    2375812.3     45625090     585440.5 
   47600         11.9    45401.621 1.8362756e+08     44387872      2497984     46885856    574898.87 
   47700       11.925    47810.511 1.9065121e+08     45541181    2630520.4     48171702    564357.23 
   47800        11.95    48691.172 1.9800976e+08     46784061    2678974.2     49463035    553815.59 
   47900       11.975    47941.596 2.0571456e+08     48098152    2637732.7     50735885    543273.95 
   48000           12    46849.504 2.1377095e+08     49431284    2577646.1     52008930    532732.31 
   48100       12.025    46849.362 2.2228324e+08     50780379    2577638.3     53358017    522190.67 
   48200        12.05    48281.501 2.3170968e+08     52236630    2656434.2     54893064    511649.03 
   48300       12.075    50847.628 2.4185052e+08     53770262    2797621.7     56567883    501107.39 
   48400         12.1    53655.579 2.5253838e+08     55322232    2952114.4     58274346    490565.75 
   48500       12.125    56000.599 2.6378986e+08     56934461    3081136.7     60015597    480024.11 
   48600        12.15    55666.644 2.7576747e+08     58683419    3062762.6     61746182    469482.47 
   48700       12.175     54804.46 2.8835232e+08     60477338    3015325.5     63492663    458940.83 
   48800         12.2    55381.595 3.0187155e+08     62320088    3047079.3     65367167    448399.19 
   48900       12.225    57605.277 3.1691574e+08     64318718    3169425.6     67488143    437857.55 
   49000        12.25    61081.137 3.3310887e+08     66380851    3360666.5     69741518    427315.91 
   49100       12.275    63656.897 3.5027648e+08     68527951      3502384     72030335    416774.27 
   49200         12.3    63568.204 3.6867991e+08     70844093    3497504.1     74341597    406232.63 
   49300       12.325    63155.593 3.8826487e+08     73234048    3474802.4     76708850    395690.99 
   49400        12.35    65094.713 4.0990015e+08     75778110    3581492.2     79359603    385149.35 
   49500       12.375    69471.862 4.3387475e+08     78461318    3822321.7     82283640    374607.71 
   49600         12.4     72089.55 4.5953479e+08     81285192    3966346.1     85251538    364066.07 
   49700       12.425    71934.239 4.8719736e+08     84317409      3957801     88275210    353524.43 
   49800        12.45    73023.116 5.1745643e+08     87492181    4017710.7     91509891    342982.79 
   49900       12.475    77271.184 5.5144598e+08     90908839    4251438.2     95160277    332441.15 
   50000         12.5      80799.1 5.8832995e+08     94518511      4445543     98964054    321899.51 
Loop time of 681.056 on 24 procs for 50000 steps with 425652 atoms

Performance: 1.586 ns/day, 15.135 hours/ns, 73.415 timesteps/s
99.7% CPU use with 24 MPI tasks x 1 OpenMP threads

MPI task timing breakdown:
Section |  min time  |  avg time  |  max time  |%varavg| %total
---------------------------------------------------------------
Pair    | 362.57     | 378.91     | 394.48     |  41.9 | 55.64
Neigh   | 0.24031    | 0.25978    | 0.27998    |   2.4 |  0.04
Comm    | 69.558     | 70.64      | 71.946     |   8.9 | 10.37
Output  | 14.457     | 14.458     | 14.475     |   0.1 |  2.12
Modify  | 178.56     | 194.91     | 210.2      |  57.9 | 28.62
Other   |            | 21.88      |            |       |  3.21

Nlocal:        17735.5 ave       17897 max       17523 min
Histogram: 1 1 3 1 3 5 2 2 3 3
Nghost:        113995.0 ave      114244 max      113724 min
Histogram: 1 2 3 2 3 5 2 1 1 4
Neighs:         0.00000 ave           0 max           0 min
Histogram: 24 0 0 0 0 0 0 0 0 0

Total # of neighbors = 0
Ave neighs/atom = 0.0000000
Neighbor list builds = 1208
Dangerous builds = 0


---------------------------------------------------------------------
      Device Time Info (average): 
---------------------------------------------------------------------
Data Transfer:   41.4376 s.
Neighbor copy:   0.0733 s.
Neighbor build:  25.5034 s.
Force calc:      222.6944 s.
Device Overhead: 66.9821 s.
Average split:   1.0000.
Lanes / atom:    4.
Vector width:    32.
Max Mem / Proc:  416.10 MB.
CPU Neighbor:    1.4348 s.
CPU Cast/Pack:   24.9957 s.
CPU Driver_Time: 0.8438 s.
CPU Idle_Time:   116.3405 s.
---------------------------------------------------------------------

Total wall time: 0:11:30
