LAMMPS (29 Sep 2021)
  using 1 OpenMP thread(s) per MPI task
Reading data file ...
  orthogonal box = (-0.72602232 -0.72907951 0.0000000) to (101.94341 101.94647 530.53600)
  2 by 2 by 6 MPI processor grid
  reading atoms ...
  425652 atoms
  reading velocities ...
  425652 velocities
  read_data CPU = 4.631 seconds
213003 atoms in group g_left
212649 atoms in group g_right

CITE-CITE-CITE-CITE-CITE-CITE-CITE-CITE-CITE-CITE-CITE-CITE-CITE

Your simulation uses code contributions which should be cited:
- GPU package (short-range, long-range and three-body potentials):
The log file lists these citations in BibTeX format.

CITE-CITE-CITE-CITE-CITE-CITE-CITE-CITE-CITE-CITE-CITE-CITE-CITE


--------------------------------------------------------------------------
- Using acceleration for eam/alloy:
-  with 12 proc(s) per device.
-  Horizontal vector operations: ENABLED
-  Shared memory system: No
--------------------------------------------------------------------------
Device 0: Tesla V100-SXM2-32GB, 80 CUs, 28/32 GB, 1.5 GHZ (Mixed Precision)
Device 1: Tesla V100-SXM2-32GB, 80 CUs, 1.5 GHZ (Mixed Precision)
--------------------------------------------------------------------------

Initializing Device and compiling on process 0...Done.
Initializing Devices 0-1 on core 0...Done.
Initializing Devices 0-1 on core 1...Done.
Initializing Devices 0-1 on core 2...Done.
Initializing Devices 0-1 on core 3...Done.
Initializing Devices 0-1 on core 4...Done.
Initializing Devices 0-1 on core 5...Done.
Initializing Devices 0-1 on core 6...Done.
Initializing Devices 0-1 on core 7...Done.
Initializing Devices 0-1 on core 8...Done.
Initializing Devices 0-1 on core 9...Done.
Initializing Devices 0-1 on core 10...Done.
Initializing Devices 0-1 on core 11...Done.

Setting up Verlet run ...
  Unit style    : metal
  Current step  : 0
  Time step     : 0.00025
Per MPI rank memory allocation (min/avg/max) = 8.281 | 10.12 | 11.06 Mbytes
Step Time Temp Press PotEng KinEng TotEng Volume 
       0            0    2345.0904     21449.82   -1769098.6    129026.19   -1640072.4    5592719.4 
     100        0.025    2344.7801    21442.012   -1769129.9    129009.12   -1640120.8    5587448.6 
     200         0.05    2344.7176     21455.88   -1769117.3    129005.68   -1640111.6    5582177.7 
     300        0.075    2344.1452    21475.856   -1769073.8    128974.19   -1640099.7    5576906.9 
     400          0.1    2345.1257    21483.759   -1769113.9    129028.14   -1640085.8    5571636.1 
     500        0.125    2345.2225     21515.11   -1769104.9    129033.46   -1640071.4    5566365.3 
     600         0.15    2344.8297    21521.392   -1769113.2    129011.85   -1640101.3    5561094.5 
     700        0.175    2344.8169    21537.662   -1769105.8    129011.15   -1640094.6    5555823.6 
     800          0.2    2345.0659    21551.692   -1769114.9    129024.84   -1640090.1    5550552.8 
     900        0.225    2344.8858    21569.532     -1769099    129014.94   -1640084.1      5545282 
    1000         0.25    2345.0051    21588.677   -1769093.5     129021.5     -1640072    5540011.2 
    1100        0.275    2344.9712    21600.637   -1769122.4    129019.63   -1640102.7    5534740.4 
    1200          0.3    2344.4812     21619.36   -1769093.8    128992.68   -1640101.1    5529469.5 
    1300        0.325    2345.0531    21627.519     -1769121    129024.14   -1640096.9    5524198.7 
    1400         0.35    2344.9209    21663.671   -1769099.7    129016.87   -1640082.8    5518927.9 
    1500        0.375    2344.9463    21682.189   -1769098.6    129018.27   -1640080.4    5513657.1 
    1600          0.4    2345.4138     21687.92   -1769115.3    129043.99   -1640071.3    5508386.3 
    1700        0.425    2344.2487    21701.458   -1769088.6    128979.88   -1640108.7    5503115.4 
    1800         0.45    2344.6146    21693.445   -1769106.8    129000.02   -1640106.7    5497844.6 
    1900        0.475    2344.7394    21710.183   -1769109.6    129006.88   -1640102.7    5492573.8 
    2000          0.5    2344.9042    21745.141   -1769108.1    129015.95   -1640092.1      5487303 
    2100        0.525     2345.114    21782.623   -1769112.7    129027.49   -1640085.2    5482032.2 
    2200         0.55    2345.1582     21807.65   -1769102.3    129029.92   -1640072.4    5476761.3 
    2300        0.575    2344.6685    21799.664   -1769108.1    129002.98   -1640105.1    5471490.5 
    2400          0.6    2344.5952    21797.005   -1769099.9    128998.95     -1640101    5466219.7 
    2500        0.625    2344.9601    21812.712   -1769115.4    129019.03   -1640096.4    5460948.9 
    2600         0.65    2345.1493    21850.696   -1769122.3    129029.43   -1640092.9    5455678.1 
    2700        0.675    2344.9394    21901.511     -1769100    129017.89   -1640082.1    5450407.2 
    2800          0.7    2344.1872    21927.949   -1769095.9     128976.5   -1640119.4    5445136.4 
    2900        0.725    2344.2695    21929.761   -1769099.2    128981.03   -1640118.2    5439865.6 
    3000         0.75    2344.2997    21936.912   -1769093.2    128982.69   -1640110.5    5434594.8 
    3100        0.775    2344.7533    21952.993   -1769111.8    129007.65   -1640104.2      5429324 
    3200          0.8    2345.3208    21977.003   -1769128.9    129038.87   -1640090.1    5424053.1 
    3300        0.825     2344.575    22000.978   -1769115.2    128997.83   -1640117.4    5418782.3 
    3400         0.85    2344.4017    22041.627   -1769098.5     128988.3   -1640110.2    5413511.5 
    3500        0.875    2344.4331    22092.764   -1769093.9    128990.03   -1640103.9    5408240.7 
    3600          0.9    2344.4497    22136.283   -1769082.7    128990.94   -1640091.7    5402969.9 
    3700        0.925    2345.8703    22137.724   -1769145.4    129069.11   -1640076.3      5397699 
    3800         0.95    2345.2402     22156.39   -1769097.4    129034.43     -1640063    5392428.2 
    3900        0.975    2344.6819    22134.303     -1769113    129003.72   -1640109.3    5387157.4 
    4000            1    2344.1733    22162.506   -1769085.9    128975.73   -1640110.2    5381886.6 
    4100        1.025    2344.7886    22180.589   -1769102.6    129009.59   -1640093.1    5376615.8 
    4200         1.05     2345.348    22193.215     -1769124    129040.37   -1640083.6    5371344.9 
    4300        1.075     2345.267    22223.894   -1769107.1    129035.91   -1640071.2    5366074.1 
    4400          1.1    2344.8673    22244.435   -1769116.7    129013.92   -1640102.8    5360803.3 
    4500        1.125    2344.7232    22292.391   -1769103.2    129005.99   -1640097.2    5355532.5 
    4600         1.15    2344.8272    22307.162   -1769107.3    129011.71   -1640095.6    5350261.7 
    4700        1.175      2344.58    22315.953     -1769088    128998.11   -1640089.9    5344990.8 
    4800          1.2    2345.2389    22332.986   -1769109.1    129034.36   -1640074.7      5339720 
    4900        1.225    2345.0358    22333.207   -1769128.5    129023.19   -1640105.3    5334449.2 
    5000         1.25    2344.6857    22365.575     -1769105    129003.93   -1640101.1    5329178.4 
    5100        1.275    2344.5495    22409.205   -1769083.6    128996.43   -1640087.2    5323907.6 
    5200          1.3    2345.4677    22437.223   -1769125.2    129046.95   -1640078.2    5318636.8 
    5300        1.325    2345.4242     22463.48   -1769118.6    129044.56   -1640074.1    5313365.9 
    5400         1.35    2345.3526    22455.266   -1769111.5    129040.62   -1640070.9    5308095.1 
    5500        1.375    2346.0372    22398.554   -1769191.2    129078.29   -1640112.9    5302824.3 
    5600          1.4    2347.2743    22366.826   -1769249.7    129146.35   -1640103.3    5297553.5 
    5700        1.425    2350.3433    22280.372   -1769405.4    129315.21   -1640090.2    5292282.7 
    5800         1.45    2350.7212     22372.62   -1769411.3       129336   -1640075.3    5287011.8 
    5900        1.475    2350.7386    22785.025   -1769400.5    129336.95   -1640063.6      5281741 
    6000          1.5    2351.1792    23253.385     -1769418     129361.2   -1640056.8    5276470.2 
    6100        1.525    2348.1702    23807.186   -1769291.6    129195.64   -1640095.9    5271199.4 
    6200         1.55    2345.8918    24526.854   -1769165.8    129070.29   -1640095.5    5265928.6 
    6300        1.575     2342.575    25318.807   -1768988.8     128887.8     -1640101    5260657.7 
    6400          1.6    2338.1351    26135.482   -1768745.9    128643.51   -1640102.4    5255386.9 
    6500        1.625    2333.9566    27037.594   -1768500.4    128413.62   -1640086.8    5250116.1 
    6600         1.65    2329.6674    27985.046   -1768256.6    128177.62   -1640078.9    5244845.3 
    6700        1.675    2324.1005    29035.205   -1767978.9    127871.34   -1640107.5    5239574.5 
    6800          1.7    2318.0745    30229.465   -1767640.9    127539.79   -1640101.1    5234303.6 
    6900        1.725    2310.8884    31513.937   -1767236.8    127144.41   -1640092.4    5229032.8 
    7000         1.75    2303.8608    32856.585   -1766849.4    126757.75   -1640091.7      5223762 
    7100        1.775    2295.1693    34268.626   -1766374.2    126279.55   -1640094.7    5218491.2 
    7200          1.8    2286.7681    35739.195   -1765903.3    125817.32     -1640086    5213220.4 
    7300        1.825    2277.7585    37211.469   -1765405.7    125321.61   -1640084.1    5207949.5 
    7400         1.85    2268.3299     38625.18   -1764923.5    124802.85   -1640120.6    5202678.7 
    7500        1.875    2258.7266    40050.487   -1764389.8    124274.48   -1640115.3    5197407.9 
    7600          1.9    2249.0085    41499.694   -1763849.5    123739.79   -1640109.7    5192137.1 
    7700        1.925     2238.613    42972.435   -1763271.1    123167.84   -1640103.3    5186866.3 
    7800         1.95    2228.3539     44441.99   -1762701.2    122603.39   -1640097.8    5181595.4 
    7900        1.975    2217.5067    45981.506   -1762100.5    122006.58     -1640094    5176324.6 
    8000            2    2205.8448    47564.265   -1761466.3    121364.94   -1640101.4    5171053.8 
    8100        2.025    2194.9599    49179.437   -1760855.2    120766.06   -1640089.2      5165783 
    8200         2.05    2182.2487    50854.672   -1760183.1    120066.69   -1640116.4    5160512.2 
    8300        2.075    2171.1927    52530.767   -1759572.7     119458.4   -1640114.3    5155241.3 
    8400          2.1    2158.1851    54320.281   -1758856.3    118742.72   -1640113.6    5149970.5 
    8500        2.125     2147.045    56072.854   -1758237.6    118129.79   -1640107.8    5144699.7 
    8600         2.15    2134.3785    57860.955     -1757536    117432.89   -1640103.1    5139428.9 
    8700        2.175    2122.2727    59681.484   -1756859.1    116766.83   -1640092.3    5134158.1 
    8800          2.2    2107.9333    61527.066   -1756108.9    115977.88   -1640131.1    5128887.2 
    8900        2.225    2096.0267    63359.657   -1755452.6    115322.78   -1640129.8    5123616.4 
    9000         2.25    2083.0831     65225.23   -1754732.9    114610.63   -1640122.3    5118345.6 
    9100        2.275    2071.0017    67124.794   -1754055.7    113945.91   -1640109.8    5113074.8 
    9200          2.3    2057.8585    69056.858     -1753316    113222.78   -1640093.2      5107804 
    9300        2.325    2045.2964    70993.324   -1752617.4    112531.61   -1640085.8    5102533.1 
    9400         2.35    2031.8569    72952.586   -1751914.1    111792.18   -1640121.9    5097262.3 
    9500        2.375    2018.7053    74951.546   -1751187.1    111068.58   -1640118.5    5091991.5 
    9600          2.4    2005.2615    76969.693     -1750442    110328.91   -1640113.1    5086720.7 
    9700        2.425     1991.839    79018.898   -1749696.8     109590.4   -1640106.4    5081449.9 
    9800         2.45    1979.8713    81046.023     -1749032    108931.95     -1640100      5076179 
    9900        2.475    1966.3331    83094.891   -1748278.3    108187.08   -1640091.2    5070908.2 
   10000          2.5    1953.4333    85151.976   -1747560.1    107477.33   -1640082.8    5065637.4 
   10100        2.525      1939.99    87220.225   -1746845.7    106737.68     -1640108    5060366.6 
   10200         2.55     1927.588    89285.526   -1746150.8    106055.33   -1640095.5    5055095.8 
   10300        2.575    1913.2085    91404.692   -1745350.1    105264.18     -1640086    5049824.9 
   10400          2.6    1900.9191    93527.769   -1744656.6    104588.02   -1640068.6    5044554.1 
   10500        2.625    1888.4072     95630.11   -1743955.5    103899.62   -1640055.9    5039283.3 
   10600         2.65    1874.5942     97764.85   -1743192.6    103139.63     -1640053    5034012.5 
   10700        2.675    1860.9755    99873.285   -1742479.5    102390.33   -1640089.2    5028741.7 
   10800          2.7    1848.4224    101981.46   -1741778.2    101699.66   -1640078.5    5023470.8 
   10900        2.725    1835.3156    104073.74   -1741048.5    100978.53     -1640070      5018200 
   11000         2.75    1821.7172    106153.93   -1740295.5    100230.35   -1640065.1    5012929.2 
   11100        2.775    1810.0395    108166.69   -1739642.8    99587.848   -1640054.9    5007658.4 
   11200          2.8    1798.4306    109944.52   -1739039.9    98949.133   -1640090.8    5002387.6 
   11300        2.825    1788.2195    111508.23   -1738475.2    98387.317   -1640087.8    4997116.7 
   11400         2.85    1779.7485    112848.58   -1738005.7    97921.247   -1640084.4    4991845.9 
   11500        2.875    1768.0845    114174.94   -1737362.4    97279.494   -1640082.9    4986575.1 
   11600          2.9    1759.1795    115474.35   -1736868.6    96789.548     -1640079    4981304.3 
   11700        2.925    1750.5287    116848.21   -1736384.2    96313.581   -1640070.6    4976033.5 
   11800         2.95    1742.0911    118272.73   -1735909.2    95849.345   -1640059.8    4970762.6 
   11900        2.975    1734.6207    119694.44   -1735493.1    95438.326   -1640054.8    4965491.8 
   12000            3    1726.4833    121085.46   -1735072.2    94990.612   -1640081.6      4960221 
   12100        3.025    1720.5505    122435.34   -1734740.4    94664.191   -1640076.2    4954950.2 
   12200         3.05    1715.0515     123782.5   -1734423.5    94361.636   -1640061.9    4949679.4 
   12300        3.075    1710.2701    125078.24   -1734153.2    94098.563   -1640054.6    4944408.5 
   12400          3.1    1705.0141    126375.66   -1733852.5    93809.379   -1640043.1    4939137.7 
   12500        3.125    1700.9727    127637.87   -1733625.1    93587.026     -1640038    4933866.9 
   12600         3.15    1696.3646    128837.09   -1733408.1    93333.489   -1640074.6    4928596.1 
   12700        3.175    1691.3259    130084.13   -1733131.7     93056.26   -1640075.5    4923325.3 
   12800          3.2    1688.1216    131356.46   -1732946.5    92879.962   -1640066.6    4918054.4 
   12900        3.225    1683.5802    132680.75   -1732698.9    92630.093   -1640068.8    4912783.6 
   13000         3.25      1679.51    133997.25   -1732465.2    92406.155   -1640059.1    4907512.8 
   13100        3.275    1674.7706    135235.48   -1732193.1     92145.39   -1640047.7      4902242 
   13200          3.3    1671.0394    136402.15     -1731976    91940.102   -1640035.9    4896971.2 
   13300        3.325    1665.8078    137566.15   -1731721.7     91652.26   -1640069.4    4891700.3 
   13400         3.35    1661.1057    138742.35   -1731450.1    91393.553   -1640056.5    4886429.5 
   13500        3.375    1656.0981    139893.28   -1731161.2    91118.037   -1640043.1    4881158.7 
   13600          3.4    1650.0858    141029.34   -1730826.9    90787.241   -1640039.7    4875887.9 
   13700        3.425    1644.0426    142191.63   -1730490.2    90454.745   -1640035.5    4870617.1 
   13800         3.45    1637.4104     143393.3   -1730113.5    90089.845   -1640023.6    4865346.2 
   13900        3.475    1629.5693    144632.34   -1729714.4    89658.431   -1640055.9    4860075.4 
   14000          3.5    1621.6491    145923.19   -1729266.5    89222.664   -1640043.8    4854804.6 
   14100        3.525    1613.0195    147213.62   -1728791.8    88747.863     -1640044    4849533.8 
   14200         3.55    1604.9467    148534.01   -1728343.5    88303.703   -1640039.8      4844263 
   14300        3.575    1596.0693    149924.59   -1727844.9    87815.268   -1640029.7    4838992.1 
   14400          3.6    1585.3702    151303.84   -1727293.5    87226.611   -1640066.9    4833721.3 
   14500        3.625     1575.985    152728.81   -1726778.6    86710.238   -1640068.3    4828450.5 
   14600         3.65    1566.1274    154230.62   -1726232.3    86167.873   -1640064.4    4823179.7 
   14700        3.675    1555.9954    155771.71   -1725673.4    85610.413   -1640062.9    4817908.9 
   14800          3.7    1544.5581    157395.64   -1725034.3    84981.138   -1640053.2      4812638 
   14900        3.725    1533.8745       159097   -1724436.1    84393.332   -1640042.8    4807367.2 
   15000         3.75    1522.2547    160825.67   -1723826.4    83754.011   -1640072.4    4802096.4 
   15100        3.775    1510.2147    162649.39   -1723156.1    83091.576   -1640064.5    4796825.6 
   15200          3.8     1498.084    164578.27   -1722473.6    82424.145   -1640049.4    4791554.8 
   15300        3.825    1485.8811    166586.06   -1721789.3    81752.747   -1640036.5    4786283.9 
   15400         3.85    1473.4663    168727.21   -1721090.2    81069.689   -1640020.5    4781013.1 
   15500        3.875     1460.095    170952.25   -1720382.2    80334.001   -1640048.2    4775742.3 
   15600          3.9    1446.9151    173267.09   -1719656.5    79608.848   -1640047.7    4770471.5 
   15700        3.925    1434.4089    175667.11   -1718966.9    78920.761   -1640046.1    4765200.7 
   15800         3.95    1420.0864    178150.01   -1718177.8    78132.742     -1640045    4759929.8 
   15900        3.975    1405.5674    180660.48   -1717379.1    77333.913   -1640045.2      4754659 
   16000            4    1392.3284    183191.31   -1716640.8    76605.507   -1640035.3    4749388.2 
   16100        4.025    1379.1489    185689.65   -1715911.8    75880.371   -1640031.4    4744117.4 
   16200         4.05    1363.8567    188208.63   -1715104.4    75038.999   -1640065.4    4738846.6 
   16300        4.075    1348.5587     190745.3     -1714269    74197.309   -1640071.7    4733575.7 
   16400          4.1      1334.68    193294.62   -1713503.7    73433.705     -1640070    4728304.9 
   16500        4.125    1321.1353    195829.21   -1712747.9    72688.483   -1640059.4    4723034.1 
   16600         4.15    1306.4486    198375.51   -1711919.9    71880.421   -1640039.5    4717763.3 
   16700        4.175    1291.7308    200971.89   -1711100.7    71070.652   -1640030.1    4712492.5 
   16800          4.2    1276.5037    203582.46     -1710256    70232.865   -1640023.1    4707221.6 
   16900        4.225    1261.2206    206216.84   -1709456.6    69391.994   -1640064.6    4701950.8 
   17000         4.25     1246.178    208833.46   -1708622.7    68564.353   -1640058.3      4696680 
   17100        4.275    1231.4152    211371.97   -1707803.8    67752.105   -1640051.7    4691409.2 
   17200          4.3    1216.4378     213859.7   -1706967.9    66928.056   -1640039.8    4686138.4 
   17300        4.325    1203.3768    216193.58   -1706236.8    66209.444   -1640027.3    4680867.5 
   17400         4.35    1191.0746    218375.89   -1705544.4    65532.578   -1640011.8    4675596.7 
   17500        4.375    1175.6215    220456.62     -1704723    64682.356   -1640040.6    4670325.9 
   17600          4.4    1163.1697    222550.69   -1704034.9    63997.259   -1640037.6    4665055.1 
   17700        4.425    1151.8532    224660.41   -1703404.2    63374.628   -1640029.6    4659784.3 
   17800         4.45    1140.4494    226798.62   -1702771.6    62747.197   -1640024.5    4654513.4 
   17900        4.475    1129.4743    228984.85   -1702154.6    62143.348   -1640011.3    4649242.6 
   18000          4.5    1119.2982     231086.2   -1701633.4    61583.464   -1640049.9    4643971.8 
   18100        4.525    1108.8132    233109.07   -1701051.4    61006.583   -1640044.8      4638701 
   18200         4.55    1100.5896    235094.22   -1700578.6     60554.12   -1640024.5    4633430.2 
   18300        4.575    1092.4283    237029.33   -1700117.4    60105.089   -1640012.3    4628159.3 
   18400          4.6    1085.1856    238909.39   -1699707.1    59706.595   -1640000.5    4622888.5 
   18500        4.625      1077.61    240701.76   -1699328.8    59289.787     -1640039    4617617.7 
   18600         4.65    1070.9971    242431.08   -1698962.1     58925.95   -1640036.1    4612346.9 
   18700        4.675    1066.4956    244094.45   -1698705.5    58678.278   -1640027.2    4607076.1 
   18800          4.7    1061.1678    245784.48   -1698397.1    58385.143   -1640011.9    4601805.2 
   18900        4.725    1057.3397    247447.37     -1698175    58174.524   -1640000.5    4596534.4 
   19000         4.75    1052.6573    249073.49   -1697953.4    57916.897   -1640036.5    4591263.6 
   19100        4.775    1049.3579    250556.24   -1697764.4    57735.365     -1640029    4585992.8 
   19200          4.8    1045.8612    251975.42   -1697556.7    57542.979   -1640013.7      4580722 
   19300        4.825    1043.2843    253267.89   -1697405.5    57401.197   -1640004.3    4575451.1 
   19400         4.85    1041.3528    254464.43     -1697296     57294.93     -1640001    4570180.3 
   19500        4.875    1038.3326    255650.15   -1697168.8    57128.756     -1640040    4564909.5 
   19600          4.9    1035.9152    256853.26   -1697030.5    56995.751   -1640034.8    4559638.7 
   19700        4.925    1033.5343    257982.59   -1696886.2    56864.756   -1640021.5    4554367.9 
   19800         4.95    1031.7332    259098.93   -1696779.1    56765.659   -1640013.5      4549097 
   19900        4.975    1027.9776    260179.57   -1696560.6    56559.032   -1640001.5    4543826.2 
   20000            5    1024.5807    261215.81   -1696370.2    56372.132     -1639998    4538555.4 
   20100        5.025    1019.0758    262255.13   -1696103.8    56069.256   -1640034.5    4533284.6 
   20200         5.05    1014.6804    263297.21   -1695851.4    55827.419     -1640024    4528013.8 
   20300        5.075     1009.003    264341.28   -1695527.1    55515.051   -1640012.1    4522742.9 
   20400          5.1    1003.7816     265438.3   -1695234.3    55227.773   -1640006.5    4517472.1 
   20500        5.125    996.38122    266550.92   -1694862.4    54820.606   -1640041.8    4512201.3 
   20600         5.15    988.80656    267709.99   -1694440.3     54403.85   -1640036.4    4506930.5 
   20700        5.175    981.09169    268920.41   -1694012.6     53979.38   -1640033.2    4501659.7 
   20800          5.2     973.7848    270167.69   -1693607.8    53577.357   -1640030.4    4496388.9 
   20900        5.225    964.52257    271499.36   -1693085.7    53067.752     -1640018      4491118 
   21000         5.25    954.66509    272913.49   -1692578.8    52525.397   -1640053.4    4485847.2 
   21100        5.275     944.3513    274497.59   -1692013.9    51957.935     -1640056    4480576.4 
   21200          5.3    933.43824    276260.89   -1691401.6    51357.501   -1640044.1    4475305.6 
   21300        5.325    921.20648    278136.59   -1690718.8    50684.513   -1640034.3    4470034.8 
   21400         5.35    909.88862     280130.9   -1690079.1    50061.808   -1640017.3    4464763.9 
   21500        5.375    895.56915    282220.52   -1689321.5    49273.955   -1640047.6    4459493.1 
   21600          5.4    883.00181    284448.75   -1688621.2    48582.504   -1640038.7    4454222.3 
   21700        5.425    870.05351    286810.72   -1687896.2    47870.092   -1640026.1    4448951.5 
   21800         5.45     854.7209    289291.23   -1687050.9    47026.496   -1640024.4    4443680.7 
   21900        5.475    842.42685    291828.69   -1686367.1    46350.081     -1640017    4438409.8 
   22000          5.5    826.97594    294399.71   -1685550.1    45499.976   -1640050.2      4433139 
   22100        5.525    813.30534    297059.85   -1684795.9    44747.824   -1640048.1    4427868.2 
   22200         5.55    797.69718    299777.35   -1683931.1    43889.067     -1640042    4422597.4 
   22300        5.575    783.31179    302517.23   -1683130.9    43097.587   -1640033.3    4417326.6 
   22400          5.6    768.47694    305304.35     -1682290    42281.378   -1640008.7    4412055.7 
   22500        5.625    752.11383    308152.99   -1681421.6    41381.085   -1640040.5    4406784.9 
   22600         5.65    736.57024    311014.77   -1680571.3    40525.881   -1640045.4    4401514.1 
   22700        5.675    721.36324    313916.32   -1679732.2    39689.196     -1640043    4396243.3 
   22800          5.7    704.10455    316832.43   -1678776.8    38739.628   -1640037.2    4390972.5 
   22900        5.725    687.96481    319783.43   -1677882.5    37851.624   -1640030.9    4385701.6 
   23000         5.75    670.50656    322765.86   -1676952.8    36891.076   -1640061.7    4380430.8 
   23100        5.775     654.4545    325704.48   -1676061.2    36007.897   -1640053.3      4375160 
   23200          5.8    638.52132    328677.06   -1675169.8    35131.258   -1640038.6    4369889.2 
   23300        5.825    622.49255    331553.63   -1674284.7    34249.359   -1640035.4    4364618.4 
   23400         5.85    607.46088    334356.06   -1673441.3    33422.322     -1640019    4359347.5 
   23500        5.875      592.622    337151.83   -1672603.3    32605.891   -1639997.4    4354076.7 
   23600          5.9    576.98875    339899.21   -1671738.3    31745.754   -1639992.6    4348805.9 
   23700        5.925    565.23957    342620.37   -1671014.5    31099.317   -1639915.2    4343535.1 
   23800         5.95    553.17348    345372.65   -1670229.1    30435.444   -1639793.7    4338264.3 
   23900        5.975    542.68741    348208.74     -1669458    29858.504   -1639599.5    4332993.4 
   24000            6    533.48967    351115.86   -1668695.7    29352.447   -1639343.3    4327722.6 
   24100        6.025     527.4544    354074.96     -1667930    29020.388   -1638909.6    4322451.8 
   24200         6.05    523.10571    356998.24   -1667148.8    28781.124   -1638367.7      4317181 
   24300        6.075    520.48129     359912.2   -1666404.3     28636.73   -1637767.6    4311910.2 
   24400          6.1    518.46607    362757.68   -1665693.2    28525.853   -1637167.3    4306639.3 
   24500        6.125    514.58462    365580.82   -1664922.6    28312.297   -1636610.3    4301368.5 
   24600         6.15    512.87623    368324.12   -1664244.5    28218.301   -1636026.2    4296097.7 
   24700        6.175    510.08862    371130.18   -1663480.2    28064.928   -1635415.2    4290826.9 
   24800          6.2    509.82463    373876.53   -1662805.9    28050.403   -1634755.5    4285556.1 
   24900        6.225    508.89716    376673.63   -1662040.2    27999.374   -1634040.8    4280285.2 
   25000         6.25    508.63654    379373.92   -1661303.5    27985.035   -1633318.4    4275014.4 
   25100        6.275    507.26241    381982.58   -1660545.4    27909.431     -1632636    4269743.6 
   25200          6.3    507.13299    384515.53   -1659799.4     27902.31   -1631897.1    4264472.8 
   25300        6.325    505.96698    387035.14   -1658918.2    27838.157   -1631080.1      4259202 
   25400         6.35    508.40597    389544.19   -1658120.8    27972.349   -1630148.5    4253931.1 
   25500        6.375    510.49423    392026.64   -1657199.1    28087.245   -1629111.8    4248660.3 
   25600          6.4    514.45628    394404.14   -1656287.9    28305.235   -1627982.7    4243389.5 
   25700        6.425    518.20357    396793.66   -1655311.1     28511.41   -1626799.7    4238118.7 
   25800         6.45    523.55148    399298.44   -1654302.4    28805.651   -1625496.7    4232847.9 
   25900        6.475     528.3613    401948.35   -1653107.5    29070.286   -1624037.2      4227577 
   26000          6.5     533.8157    404822.58   -1651715.6    29370.385   -1622345.2    4222306.2 
   26100        6.525     541.5913    407869.25   -1650195.6    29798.196   -1620397.5    4217035.4 
   26200         6.55    551.34272    411158.97   -1648521.3    30334.716   -1618186.5    4211764.6 
   26300        6.575    562.16095    414598.82   -1646633.7    30929.933   -1615703.7    4206493.8 
   26400          6.6    575.74751    418230.44   -1644655.1    31677.461   -1612977.6    4201222.9 
   26500        6.625    588.24974    422032.37   -1642475.6     32365.33   -1610110.3    4195952.1 
   26600         6.65    603.40841    426069.68     -1640278    33199.356   -1607078.6    4190681.3 
   26700        6.675    620.38297    430292.56   -1638008.1    34133.291   -1603874.8    4185410.5 
   26800          6.7    638.85794    434658.03   -1635668.1    35149.778   -1600518.3    4180139.7 
   26900        6.725    658.32314    439097.22   -1633285.6    36220.748   -1597064.8    4174868.8 
   27000         6.75     678.7767    443783.58   -1630903.6    37346.097   -1593557.5      4169598 
   27100        6.775    700.02872    448719.25     -1628474    38515.377   -1589958.6    4164327.2 
   27200          6.8    719.87329    453808.89   -1625959.9     39607.22   -1586352.7    4159056.4 
   27300        6.825    739.47964    459011.53   -1623389.6    40685.956   -1582703.6    4153785.6 
   27400         6.85    760.47891    464345.76   -1620840.9    41841.329   -1578999.6    4148514.7 
   27500        6.875    781.75956    469822.93   -1618273.1    43012.184   -1575260.9    4143243.9 
   27600          6.9    804.97727    475399.57   -1615777.5    44289.616   -1571487.8    4137973.1 
   27700        6.925    827.40102    481045.22   -1613228.2    45523.364   -1567704.9    4132702.3 
   27800         6.95    851.38272    486667.23   -1610742.5    46842.831   -1563899.7    4127431.5 
   27900        6.975    878.12763    492306.32   -1608372.3    48314.327     -1560058    4122160.6 
   28000            7    903.99814    498003.72   -1605943.5    49737.716   -1556205.8    4116889.8 
   28100        7.025    930.51676    503725.23   -1603528.9    51196.762   -1552332.2      4111619 
   28200         7.05     956.2254    509501.36   -1601075.1    52611.244   -1548463.8    4106348.2 
   28300        7.075    986.03627    515276.19   -1598767.5    54251.429   -1544516.1    4101077.4 
   28400          7.1    1012.2754    521205.73     -1596254    55695.098   -1540558.9    4095806.5 
   28500        7.125    1038.7667    527304.71   -1593761.2    57152.643   -1536608.6    4090535.7 
   28600         7.15    1065.2352    533380.49   -1591259.7    58608.931   -1532650.8    4085264.9 
   28700        7.175     1091.751    539372.95   -1588788.3    60067.824   -1528720.4    4079994.1 
   28800          7.2    1118.9178    545222.53   -1586376.1    61562.534   -1524813.6    4074723.3 
   28900        7.225    1150.3182    550904.33   -1584182.7    63290.174   -1520892.5    4069452.4 
   29000         7.25    1182.0535     556366.2   -1582035.5    65036.242   -1516999.3    4064181.6 
   29100        7.275    1219.0697    561230.11   -1580190.7    67072.864   -1513117.8    4058910.8 
   29200          7.3    1259.0069    565276.48   -1578516.5    69270.195   -1509246.3      4053640 
   29300        7.325    1300.2761    568947.93   -1576948.1    71540.812   -1505407.2    4048369.2 
   29400         7.35    1341.1614    572785.49   -1575366.8    73790.314   -1501576.4    4043098.3 
   29500        7.375    1384.9517    576871.77   -1573955.7    76199.643     -1497756    4037827.5 
   29600          7.4    1428.8341    580935.51     -1572560    78614.039     -1493946    4032556.7 
   29700        7.425    1475.5325     584632.2   -1571306.3    81183.373     -1490123    4027285.9 
   29800         7.45    1520.7642    588135.55     -1570013    83672.004     -1486341    4022015.1 
   29900        7.475    1560.9161    592006.77   -1568465.5    85881.152   -1482584.3    4016744.2 
   30000          7.5     1606.431    596624.01   -1567207.3    88385.369   -1478821.9    4011473.4 
   30100        7.525    1656.1239    601217.28   -1566190.3    91119.454   -1475070.8    4006202.6 
   30200         7.55     1701.349    605386.38   -1564953.6    93607.727   -1471345.9    4000931.8 
   30300        7.575    1751.1344    609252.27   -1563936.4    96346.906   -1467589.5      3995661 
   30400          7.6    1801.0093    613324.51   -1562888.8    99091.007   -1463797.8    3990390.1 
   30500        7.625     1846.688    617953.27   -1561632.8    101604.24   -1460028.5    3985119.3 
   30600         7.65     1887.508    623144.19   -1560148.5    103850.15   -1456298.4    3979848.5 
   30700        7.675    1925.4786    628528.16   -1558511.3    105939.27   -1452572.1    3974577.7 
   30800          7.7    1958.3424    634135.05   -1556638.2    107747.43   -1448890.8    3969306.9 
   30900        7.725    1986.7551    640189.94     -1554570    109310.69   -1445259.3      3964036 
   31000         7.75    2012.4807    646592.48   -1552407.9     110726.1   -1441681.7    3958765.2 
   31100        7.775    2035.7973    653198.89   -1550175.2    112008.98   -1438166.3    3953494.4 
   31200          7.8    2054.8137    659634.14   -1547763.8    113055.26   -1434708.5    3948223.6 
   31300        7.825    2071.9113    666059.16   -1545362.8    113995.96   -1431366.8    3942952.8 
   31400         7.85    2085.9897    672569.22   -1542924.5    114770.55     -1428154    3937681.9 
   31500        7.875     2100.088    679021.42   -1540588.8    115546.23   -1425042.6    3932411.1 
   31600          7.9    2109.4811    685277.35   -1538114.2    116063.04   -1422051.1    3927140.3 
   31700        7.925    2114.9058    691567.19   -1535570.1     116361.5   -1419208.6    3921869.5 
   31800         7.95    2115.6632    697860.27   -1532909.9    116403.18   -1416506.7    3916598.7 
   31900        7.975    2115.0389    703915.36   -1530293.7    116368.83   -1413924.8    3911327.8 
   32000            8    2111.5339    709740.36   -1527648.6    116175.98   -1411472.6      3906057 
   32100        8.025    2107.0502    715533.73   -1525065.2    115929.29   -1409135.9    3900786.2 
   32200         8.05    2101.5531    721098.01   -1522507.1    115626.84   -1406880.3    3895515.4 
   32300        8.075    2094.2577    726486.17   -1519895.4    115225.45     -1404670    3890244.6 
   32400          8.1    2087.9838    731743.92   -1517339.2    114880.26     -1402459    3884973.7 
   32500        8.125    2081.9389    736951.17   -1514798.5    114547.67   -1400250.9    3879702.9 
   32600         8.15    2077.4393    742133.73   -1512359.1    114300.11     -1398059    3874432.1 
   32700        8.175     2072.439    746524.21   -1509967.7    114024.99   -1395942.7    3869161.3 
   32800          8.2    2077.7864    749510.43   -1508179.6     114319.2   -1393860.4    3863890.5 
   32900        8.225    2076.8179    751890.55   -1506184.4    114265.92   -1391918.5    3858619.6 
   33000         8.25     2067.192    754415.12   -1503782.1    113736.31   -1390045.8    3853348.8 
   33100        8.275       2072.8    757264.35   -1502194.2    114044.85   -1388149.3      3848078 
   33200          8.3    2078.0908    760719.81   -1500450.8    114335.96   -1386114.9    3842807.2 
   33300        8.325    2080.5433    763749.29   -1498395.3    114470.89   -1383924.4    3837536.4 
   33400         8.35    2095.2028    765807.88   -1496929.8    115277.45   -1381652.4    3832265.5 
   33500        8.375    2089.7324    768420.87   -1494354.6    114976.47   -1379378.1    3826994.7 
   33600          8.4    2092.9575    772158.93   -1492390.1    115153.91   -1377236.2    3821723.9 
   33700        8.425    2099.7075    776567.16   -1490721.2     115525.3   -1375195.9    3816453.1 
   33800         8.45    2088.3005    781129.36   -1488116.9    114897.69   -1373219.2    3811182.3 
   33900        8.475    2100.6561    784649.37   -1486825.2    115577.49   -1371247.7    3805911.4 
   34000          8.5     2099.903    788212.34     -1484788    115536.06   -1369251.9    3800640.6 
   34100        8.525    2102.4034    792264.85   -1482937.4    115673.62   -1367263.7    3795369.8 
   34200         8.55    2112.8062    797388.52   -1481473.9    116245.98   -1365227.9      3790099 
   34300        8.575    2119.1986    802693.95   -1479733.7    116597.69     -1363136    3784828.2 
   34400          8.6    2140.3909    806766.57   -1478713.2    117763.68   -1360949.5    3779557.3 
   34500        8.625    2155.2978    810864.88   -1477258.2    118583.86   -1358674.4    3774286.5 
   34600         8.65    2181.8082    815373.28   -1476374.7    120042.45   -1356332.2    3769015.7 
   34700        8.675    2206.2035     820547.6   -1475294.6    121384.68     -1353910    3763744.9 
   34800          8.7     2234.104    825898.12   -1474269.3    122919.76   -1351349.6    3758474.1 
   34900        8.725    2270.5757    831033.28   -1473521.7    124926.41   -1348595.3    3753203.2 
   35000         8.75    2297.4701    836820.89   -1472103.5    126406.14   -1345697.4    3747932.4 
   35100        8.775    2329.4269    843116.65   -1470957.6    128164.39   -1342793.2    3742661.6 
   35200          8.8    2350.3757    850203.53   -1469233.2    129316.99   -1339916.2    3737390.8 
   35300        8.825    2376.5928    857680.36   -1467717.1    130759.45   -1336957.7      3732120 
   35400         8.85    2397.3195    865561.15   -1465808.2    131899.82   -1333908.4    3726849.1 
   35500        8.875    2416.9829    873754.54   -1463742.9     132981.7   -1330761.2    3721578.3 
   35600          8.9    2437.0504    882115.49   -1461680.2    134085.81   -1327594.4    3716307.5 
   35700        8.925     2452.617    890689.11   -1459397.4    134942.28   -1324455.1    3711036.7 
   35800         8.95    2468.1323    898949.34   -1457089.7    135795.93   -1321293.8    3705765.9 
   35900        8.975    2478.6926    907182.76   -1454421.2    136376.95   -1318044.2      3700495 
   36000            9    2492.7263    915206.45   -1451879.4    137149.08   -1314730.4    3695224.2 
   36100        9.025    2504.5092    923371.62   -1449210.9    137797.37   -1311413.5    3689953.4 
   36200         9.05    2514.7996    931248.25   -1446437.9    138363.55   -1308074.4    3684682.6 
   36300        9.075    2526.3421    938893.94   -1443639.7    138998.61   -1304641.1    3679411.8 
   36400          9.1     2543.372    945614.43   -1441102.1    139935.59   -1301166.5      3674141 
   36500        9.125    2561.4667    950972.58   -1438587.3    140931.16   -1297656.1    3668870.1 
   36600         9.15     2584.078    955485.02   -1436294.3    142175.22   -1294119.1    3663599.3 
   36700        9.175    2602.0628    959753.83   -1433648.5    143164.74   -1290483.8    3658328.5 
   36800          9.2    2612.8716    964404.17   -1430516.9    143759.44   -1286757.5    3653057.7 
   36900        9.225    2616.1314    969156.41   -1426904.4    143938.79   -1282965.6    3647786.9 
   37000         9.25    2625.2815    974002.38   -1423565.1    144442.23   -1279122.9      3642516 
   37100        9.275    2635.0076    979145.16     -1420189    144977.35   -1275211.6    3637245.2 
   37200          9.3    2633.0853    984424.22   -1416112.3    144871.59   -1271240.7    3631974.4 
   37300        9.325    2637.3586     990159.9   -1412280.9     145106.7   -1267174.2    3626703.6 
   37400         9.35    2633.5637    996218.36   -1408033.2    144897.91   -1263135.3    3621432.8 
   37500        9.375    2629.3863    1001724.8   -1403791.8    144668.07   -1259123.8    3616161.9 
   37600          9.4    2623.1151    1006863.2     -1399417    144323.03     -1255094    3610891.1 
   37700        9.425    2617.9186      1011980     -1395100    144037.12   -1251062.9    3605620.3 
   37800         9.45    2612.4168    1017650.3   -1390825.6    143734.42   -1247091.1    3600349.5 
   37900        9.475    2605.8053    1023904.9   -1386559.5    143370.65   -1243188.9    3595078.7 
   38000          9.5    2599.2261    1029938.5   -1382361.5    143008.67   -1239352.8    3589807.8 
   38100        9.525    2588.8153    1036361.5   -1377997.9    142435.87     -1235562      3584537 
   38200         9.55    2582.2291    1043585.7   -1373954.3     142073.5   -1231880.8    3579266.2 
   38300        9.575    2569.4346    1051786.7   -1369691.3    141369.55   -1228321.7    3573995.4 
   38400          9.6    2558.6023    1060603.9   -1365620.7    140773.55   -1224847.1    3568724.6 
   38500        9.625    2543.1618    1069586.7   -1361350.2    139924.03   -1221426.2    3563453.7 
   38600         9.65    2532.2533    1079263.1   -1357456.4    139323.84   -1218132.6    3558182.9 
   38700        9.675     2513.601    1089435.9   -1353207.3     138297.6   -1214909.7    3552912.1 
   38800          9.7    2495.3591    1099855.2   -1349082.9    137293.93     -1211789    3547641.3 
   38900        9.725    2474.1594    1110561.5   -1344835.3    136127.53   -1208707.7    3542370.5 
   39000         9.75    2454.7588    1121556.5   -1340710.7    135060.12   -1205650.6    3537099.6 
   39100        9.775    2430.8494    1132299.2   -1336360.4    133744.63   -1202615.8    3531828.8 
   39200          9.8    2411.2369    1142112.2   -1332253.3    132665.56   -1199587.7      3526558 
   39300        9.825    2395.0952    1150228.1   -1328311.2    131777.44   -1196533.8    3521287.2 
   39400         9.85    2374.0657      1157400   -1324061.7    130620.41   -1193441.3    3516016.4 
   39500        9.875    2356.4103    1164607.8   -1320040.2    129649.01   -1190391.2    3510745.5 
   39600          9.9    2340.4948    1172017.6   -1316130.4    128773.34   -1187357.1    3505474.7 
   39700        9.925    2326.7857    1179662.5   -1312394.5    128019.07   -1184375.4    3500203.9 
   39800         9.95    2316.0673    1187283.7   -1308787.3    127429.35     -1181358    3494933.1 
   39900        9.975     2311.739    1194634.7   -1305472.3    127191.21   -1178281.1    3489662.3 
   40000           10    2310.9935    1201556.1   -1302316.5    127150.19   -1175166.4    3484391.4 
   40100       10.025    2303.9397    1208096.5   -1298855.2    126762.09   -1172093.1    3479120.6 
   40200        10.05    2294.0276    1214676.9   -1295294.8    126216.73     -1169078    3473849.8 
   40300       10.075    2278.0026    1221383.2   -1291535.3    125335.04   -1166200.2      3468579 
   40400         10.1     2261.772      1227150   -1287849.8    124442.04   -1163407.7    3463308.2 
   40500       10.125    2242.9841    1232513.8   -1284084.2    123408.34   -1160675.9    3458037.3 
   40600        10.15    2221.0031    1237334.5   -1280159.6    122198.95   -1157960.7    3452766.5 
   40700       10.175    2196.5879    1241704.2   -1276046.5    120855.63   -1155190.8    3447495.7 
   40800         10.2    2172.6841    1246106.3   -1271964.9    119540.45   -1152424.4    3442224.9 
   40900       10.225    2143.7345    1251147.6   -1267686.4    117947.65   -1149738.8    3436954.1 
   41000        10.25    2116.9794      1257002   -1263612.5    116475.59   -1147136.9    3431683.2 
   41100       10.275    2083.3583    1263633.6   -1259256.7    114625.77   -1144630.9    3426412.4 
   41200         10.3    2045.8573      1271029   -1254735.9    112562.48   -1142173.4    3421141.6 
   41300       10.325    2007.7716      1279334   -1250194.1    110467.01   -1139727.1    3415870.8 
   41400        10.35    1967.1186    1288237.5   -1245491.8     108230.3   -1137261.5      3410600 
   41500       10.375     1924.555    1298008.6   -1240632.8    105888.46   -1134744.3    3405329.1 
   41600         10.4    1879.6527    1308221.7   -1235676.1    103417.95   -1132258.2    3400058.3 
   41700       10.425    1831.3423    1318557.3   -1230576.1    100759.92   -1129816.2    3394787.5 
   41800        10.45     1782.112    1329116.3   -1225499.8    98051.287   -1127448.5    3389516.7 
   41900       10.475    1730.7977    1339472.4   -1220353.6    95227.989   -1125125.7    3384245.9 
   42000         10.5    1674.9838    1349259.9   -1215064.5    92157.121   -1122907.4      3378975 
   42100       10.525    1619.0854    1358780.9   -1209790.8    89081.609   -1120709.2    3373704.2 
   42200        10.55     1562.918    1368493.9   -1204506.9    85991.293   -1118515.6    3368433.4 
   42300       10.575    1511.8882    1378454.3   -1199535.9    83183.651   -1116352.2    3363162.6 
   42400         10.6    1458.7902    1388521.3   -1194469.3    80262.215   -1114207.1    3357891.8 
   42500       10.625    1409.4816    1398970.1   -1189649.4     77549.27   -1112100.2    3352620.9 
   42600        10.65    1365.6935    1408983.9   -1185143.6    75140.061   -1110003.6    3347350.1 
   42700       10.675    1325.4032    1417923.1   -1180850.8    72923.298   -1107927.5    3342079.3 
   42800         10.7    1289.2833    1426009.7   -1176816.9    70935.994   -1105880.9    3336808.5 
   42900       10.725     1251.718      1433274   -1172667.4    68869.163   -1103798.2    3331537.7 
   43000        10.75     1223.198    1440082.4   -1168935.1    67300.001   -1101635.1    3326266.8 
   43100       10.775    1198.2733    1446862.5   -1165285.6    65928.651     -1099357      3320996 
   43200         10.8    1179.6522    1453199.6   -1161787.8    64904.121   -1096883.7    3315725.2 
   43300       10.825    1164.5657    1459030.6   -1158246.5    64074.066   -1094172.4    3310454.4 
   43400        10.85      1155.71    1465056.9   -1154871.4    63586.829   -1091284.5    3305183.6 
   43500       10.875    1149.6797    1471336.6   -1151540.4    63255.042   -1088285.4    3299912.7 
   43600         10.9    1140.9504      1477699   -1147965.7    62774.761   -1085190.9    3294641.9 
   43700       10.925    1137.5341    1484660.9   -1144571.6    62586.797   -1081984.8    3289371.1 
   43800        10.95     1133.573    1491806.2   -1141034.5    62368.855   -1078665.6    3284100.3 
   43900       10.975    1135.4531    1499498.1   -1137635.3    62472.301     -1075163    3278829.5 
   44000           11    1137.1239    1507520.3   -1134121.1     62564.23   -1071556.8    3273558.6 
   44100       11.025    1136.2939    1515913.2   -1130383.6    62518.562   -1067865.1    3268287.8 
   44200        11.05    1134.6179    1524446.8   -1126515.5    62426.345   -1064089.2      3263017 
   44300       11.075    1134.0821    1533285.6   -1122686.9    62396.871     -1060290    3257746.2 
   44400         11.1    1128.3424    1542272.5     -1118531    62081.073   -1056449.9    3252475.4 
   44500       11.125    1118.0513    1551712.3   -1113976.4    61514.856   -1052461.5    3247204.5 
   44600        11.15    1111.1372    1561681.4   -1109454.2    61134.446   -1048319.7    3241933.7 
   44700       11.175    1101.5393    1571685.1   -1104583.4    60606.371     -1043977    3236662.9 
   44800         11.2    1092.8218      1581697   -1099524.4     60126.74   -1039397.7    3231392.1 
   44900       11.225    1086.6011    1591952.3   -1094318.8    59784.477   -1034534.3    3226121.3 
   45000        11.25    1079.3441    1602714.4   -1088916.3      59385.2   -1029531.1    3220850.4 
   45100       11.275    1070.9565    1614095.3   -1083442.5    58923.717   -1024518.8    3215579.6 
   45200         11.3     1056.159    1625713.4   -1077674.7    58109.564   -1019565.2    3210308.8 
   45300       11.325     1038.257    1636750.7   -1071699.7    57124.601   -1014575.1      3205038 
   45400        11.35     1022.914    1647689.1   -1065689.6    56280.434   -1009409.1    3199767.2 
   45500       11.375    1009.7423    1657845.9   -1059407.2    55555.729   -1003851.5    3194496.3 
   45600         11.4    1007.0876    1667847.8   -1053220.8    55409.669   -997811.16    3189225.5 
   45700       11.425    1005.2557    1677905.5   -1046775.3    55308.876   -991466.42    3183954.7 
   45800        11.45    1005.9005    1688227.7   -1040266.5    55344.352    -984922.2    3178683.9 
   45900       11.475    1010.1274    1698912.2   -1033706.5    55576.916   -978129.55    3173413.1 
   46000         11.5    1015.3409    1710486.9   -1026775.2     55863.76   -970911.42    3168142.2 
   46100       11.525    1030.0993    1722954.4   -1019852.7    56675.763   -963176.92    3162871.4 
   46200        11.55    1047.9043    1735936.1   -1012751.1    57655.389    -955095.7    3157600.6 
   46300       11.575    1063.5568    1749431.1   -1005328.6    58516.589      -946812    3152329.8 
   46400         11.6    1087.0496    1763290.1   -998086.86    59809.154   -938277.71      3147059 
   46500       11.625    1117.1246    1777376.9   -990722.16    61463.873   -929258.28    3141788.1 
   46600        11.65    1154.8333    1792007.6   -983448.45    63538.592   -919909.86    3136517.3 
   46700       11.675     1199.798    1806888.8    -976350.1    66012.538   -910337.56    3131246.5 
   46800         11.7    1246.8397    1821641.2    -969247.3    68600.761   -900646.54    3125975.7 
   46900       11.725    1301.1455    1836159.5   -962290.29    71588.646   -890701.64    3120704.9 
   47000        11.75    1359.9576    1850953.4   -955286.36    74824.471   -880461.89      3115434 
   47100       11.775    1424.1712    1866611.8   -948585.02    78357.489   -870227.53    3110163.2 
   47200         11.8    1485.7874    1882382.6   -941763.24    81747.589   -860015.65    3104892.4 
   47300       11.825    1551.6584    1898249.2   -935118.56    85371.796   -849746.76    3099621.6 
   47400        11.85    1619.8581    1914128.3   -928690.88    89124.124   -839566.75    3094350.8 
   47500       11.875    1682.5478    1929805.7   -922168.54    92573.292   -829595.25    3089079.9 
   47600         11.9     1747.154      1945149   -915833.62    96127.906   -819705.71    3083809.1 
   47700       11.925    1805.2572    1959789.2   -909349.62    99324.725   -810024.89    3078538.3 
   47800        11.95    1864.6088    1974198.6   -903066.16    102590.24   -800475.93    3073267.5 
   47900       11.975     1920.673    1988110.2   -896697.28    105674.87    -791022.4    3067996.7 
   48000           12    1978.7084    2002248.5    -890444.1    108867.96   -781576.13    3062725.8 
   48100       12.025     2029.034      2016358   -883966.13    111636.86   -772329.27      3057455 
   48200        12.05    2072.3213    2030082.1   -877182.65    114018.52   -763164.14    3052184.2 
   48300       12.075    2120.0427    2044490.2   -870621.54    116644.14   -753977.41    3046913.4 
   48400         12.1    2154.2201    2059152.7   -863303.41    118524.57   -744778.84    3041642.6 
   48500       12.125    2181.8044    2074701.3   -855782.76    120042.25   -735740.52    3036371.7 
   48600        12.15    2203.1846    2090665.7   -848032.66    121218.58   -726814.08    3031100.9 
   48700       12.175    2213.2993    2106172.4   -839840.62    121775.09   -718065.54    3025830.1 
   48800         12.2    2221.7699    2121165.8   -831618.22    122241.14   -709377.09    3020559.3 
   48900       12.225    2223.7722    2136898.9   -823155.52     122351.3   -700804.22    3015288.5 
   49000        12.25     2225.092    2152734.9   -814824.78    122423.92   -692400.86    3010017.6 
   49100       12.275    2224.1558      2168563   -806481.42    122372.41   -684109.02    3004746.8 
   49200         12.3    2225.9919    2184372.9   -798378.38    122473.43   -675904.95      2999476 
   49300       12.325    2223.8801    2200482.3   -790268.35    122357.24   -667911.12    2994205.2 
   49400        12.35    2213.5741    2216749.4   -781943.85    121790.21   -660153.64    2988934.4 
   49500       12.375    2207.6537    2233166.6   -774064.68    121464.47   -652600.22    2983663.5 
   49600         12.4    2197.4658      2249813   -766089.59    120903.93   -645185.66    2978392.7 
   49700       12.425    2191.4054    2266240.7   -758389.46    120570.49   -637818.97    2973121.9 
   49800        12.45    2185.3814    2281651.7   -750884.73    120239.05   -630645.68    2967851.1 
   49900       12.475    2181.8665    2296812.6      -743653    120045.66   -623607.34    2962580.3 
   50000         12.5    2187.1618    2311405.7    -736872.7    120337.01    -616535.7    2957309.4 
Loop time of 406.783 on 24 procs for 50000 steps with 425652 atoms

Performance: 2.655 ns/day, 9.040 hours/ns, 122.916 timesteps/s
99.8% CPU use with 24 MPI tasks x 1 OpenMP threads

MPI task timing breakdown:
Section |  min time  |  avg time  |  max time  |%varavg| %total
---------------------------------------------------------------
Pair    | 182.57     | 198.13     | 210.93     |  45.0 | 48.71
Neigh   | 0.087281   | 0.09008    | 0.093666   |   0.7 |  0.02
Comm    | 38.038     | 40.664     | 44.255     |  30.5 | 10.00
Output  | 13.644     | 13.646     | 13.661     |   0.1 |  3.35
Modify  | 120.36     | 134.7      | 147.2      |  51.5 | 33.11
Other   |            | 19.56      |            |       |  4.81

Nlocal:        17735.5 ave       18468 max       16503 min
Histogram: 6 2 0 0 0 0 0 0 8 8
Nghost:        23832.7 ave       25033 max       21910 min
Histogram: 8 0 0 0 0 0 0 0 8 8
Neighs:         0.00000 ave           0 max           0 min
Histogram: 24 0 0 0 0 0 0 0 0 0

Total # of neighbors = 0
Ave neighs/atom = 0.0000000
Neighbor list builds = 470
Dangerous builds = 0


---------------------------------------------------------------------
      Device Time Info (average): 
---------------------------------------------------------------------
Data Transfer:   21.7059 s.
Neighbor copy:   0.0176 s.
Neighbor build:  1.6021 s.
Force calc:      115.6419 s.
Device Overhead: 68.4322 s.
Average split:   1.0000.
Lanes / atom:    4.
Vector width:    32.
Max Mem / Proc:  77.97 MB.
CPU Neighbor:    0.2595 s.
CPU Cast/Pack:   17.8927 s.
CPU Driver_Time: 0.9205 s.
CPU Idle_Time:   54.3089 s.
---------------------------------------------------------------------

Total wall time: 0:06:55
