LAMMPS (29 Sep 2021)
  using 1 OpenMP thread(s) per MPI task
Reading restart file ...
  restart file = 29 Sep 2021, LAMMPS = 29 Sep 2021
  restoring atom style atomic from restart
  orthogonal box = (-0.50204369 -0.51164819 0.0000000) to (101.57471 101.58432 617.40100)
  2 by 3 by 16 MPI processor grid
  pair style hybrid/overlay stores no restart info
  442002 atoms
  read_restart CPU = 0.174 seconds
Resetting global fix info from restart file:
  fix style: npt, fix ID: 2

CITE-CITE-CITE-CITE-CITE-CITE-CITE-CITE-CITE-CITE-CITE-CITE-CITE

Your simulation uses code contributions which should be cited:
- @article{cjiang2012
The log file lists these citations in BibTeX format.

CITE-CITE-CITE-CITE-CITE-CITE-CITE-CITE-CITE-CITE-CITE-CITE-CITE

All restart file global fix info was re-assigned
Unused restart file peratom fix info:
  fix style: STORE, fix ID: spatialbins_COMPUTE_STORE
Neighbor list info ...
  update every 1 steps, delay 10 steps, check yes
  max neighbors/atom: 2000, page size: 100000
  master list distance cutoff = 8.28721
  ghost atom cutoff = 8.28721
  binsize = 4.143605, bins = 25 25 150
  3 neighbor lists, perpetual/occasional/extra = 3 0 0
  (1) pair eam/alloy, perpetual, skip from (3)
      attributes: half, newton on
      pair build: skip
      stencil: none
      bin: none
  (2) pair edip/multi, perpetual
      attributes: full, newton on
      pair build: full/bin/atomonly
      stencil: full/bin/3d
      bin: standard
  (3) neighbor class addition, perpetual, half/full from (2)
      attributes: half, newton on
      pair build: halffull/newton
      stencil: none
      bin: none
Setting up Verlet run ...
  Unit style    : metal
  Current step  : 11000045
  Time step     : 0.0001
Per MPI rank memory allocation (min/avg/max) = 4.711 | 12.06 | 17.60 Mbytes
Step Time Temp PotEng E_pair TotEng Press Volume Lx Ly Lz CPULeft 
11000045            0    299.94234   -1936782.3   -1936782.3   -1919645.6    216.13763    6434321.7    102.07676    102.09597      617.401            0 
11010000       0.9955    300.07466     -1936763     -1936763   -1919618.8   -352.99592    6435898.1    102.10236    102.09538      617.401    26980.037 
11020000       1.9955    300.36607   -1936743.9   -1936743.9   -1919583.1   -205.79241    6435174.6    102.08894    102.09731      617.401    26766.885 
11030000       2.9955     300.0217   -1936751.7   -1936751.7   -1919610.6    167.48597    6435246.5    102.09596    102.09143      617.401    26515.684 
11040000       3.9955    300.18861     -1936773     -1936773   -1919622.3   -400.74084    6435204.9    102.10217    102.08457      617.401    26251.407 
11050000       4.9955    300.02909   -1936749.1   -1936749.1   -1919607.5   -353.90922    6435828.6    102.09384    102.10279      617.401    25981.505 
11060000       5.9955    300.22457   -1936770.3   -1936770.3   -1919617.5   -9.9912727    6436016.3    102.09717    102.10244      617.401    25717.578 
11070000       6.9955    300.01912   -1936771.1   -1936771.1   -1919630.1   -80.716327    6436146.1    102.10384    102.09782      617.401    25451.635 
11080000       7.9955    299.82955   -1936767.6   -1936767.6   -1919637.4   -275.49731    6436978.8    102.11114    102.10373      617.401    25180.351 
11090000       8.9955    300.41518   -1936753.1   -1936753.1   -1919589.4    207.47545    6436002.2    102.09972    102.09966      617.401    24909.483 
11100000       9.9955    300.19248   -1936724.3   -1936724.3   -1919573.4   -155.92022    6436815.2    102.10575    102.10652      617.401    24639.472 
11110000      10.9955    300.03478   -1936773.1   -1936773.1   -1919631.2    107.37043    6437276.7    102.11219    102.10741      617.401    24363.616 
11120000      11.9955    300.06459   -1936753.1   -1936753.1   -1919609.4    105.63563      6436534    102.10865    102.09917      617.401    24090.944 
11130000      12.9955      300.243   -1936746.2   -1936746.2   -1919592.4   -282.37975    6437614.2    102.11186     102.1131      617.401    23820.454 
11140000      13.9955     300.0944   -1936782.3   -1936782.3   -1919636.9    228.72632    6437735.7    102.10688       102.12      617.401    23547.989 
11150000      14.9955    299.85386   -1936760.8   -1936760.8   -1919629.2    205.00308    6437073.5    102.11037      102.106      617.401    23273.343 
11160000      15.9955    300.14462   -1936775.1   -1936775.1   -1919626.9    201.78219    6436989.9    102.10505       102.11      617.401    23000.868 
11170000      16.9955    300.08295   -1936767.5   -1936767.5   -1919622.8     113.3758    6437641.9    102.12209    102.10331      617.401    22728.544 
11180000      17.9955    300.05885   -1936752.4   -1936752.4   -1919609.1    147.01723    6436812.9    102.11112    102.10112      617.401    22452.703 
11190000      18.9955    300.14301   -1936745.8   -1936745.8   -1919597.7   -194.65239    6437087.6    102.10767    102.10893      617.401     22176.79 
11200000      19.9955     299.9083   -1936801.7   -1936801.7     -1919667    -48.03577    6435759.4    102.09211    102.10342      617.401    21903.163 
11210000      20.9955    299.97065   -1936761.6   -1936761.6   -1919623.3    289.46246    6436089.2    102.10561    102.09515      617.401     21630.87 
11220000      21.9955    300.00801   -1936740.2   -1936740.2   -1919599.8    150.53647    6436179.1    102.09894    102.10325      617.401    21356.405 
11230000      22.9955    300.10836   -1936762.9   -1936762.9   -1919616.8    239.63928    6436398.4    102.10375    102.10192      617.401    21081.898 
11240000      23.9955    300.04835   -1936723.9   -1936723.9   -1919581.2    255.26538    6436133.9    102.09932    102.10215      617.401    20809.158 
11250000      24.9955     299.8798   -1936741.7   -1936741.7   -1919608.7   -39.963823    6435284.9    102.10136    102.08664      617.401    20536.656 
11260000      25.9955    300.00569   -1936767.8   -1936767.8   -1919627.5   -443.57726    6435470.2    102.09865     102.0923      617.401    20262.895 
11270000      26.9955    299.98544   -1936748.2   -1936748.2   -1919609.1   -77.870807    6434974.3    102.09143    102.09164      617.401    19990.155 
11280000      27.9955    300.10739   -1936768.4   -1936768.4   -1919622.3    -480.6171    6435791.4    102.09825    102.09779      617.401    19716.412 
11290000      28.9955    299.97494   -1936746.1   -1936746.1   -1919607.6   -324.10587    6435765.3    102.09584    102.09979      617.401    19443.009 
11300000      29.9955    300.22472   -1936723.8   -1936723.8     -1919571   -61.443472    6436222.7    102.09503    102.10784      617.401    19169.123 
11310000      30.9955    299.93146   -1936740.6   -1936740.6   -1919604.5    147.50303    6435781.1    102.09045    102.10543      617.401    18895.043 
11320000      31.9955    300.07524   -1936761.3   -1936761.3     -1919617   -139.89298      6434912    102.09691    102.08517      617.401    18620.649 
11330000      32.9955    299.78738   -1936743.3   -1936743.3   -1919615.6    337.15233    6434553.2     102.0819     102.0945      617.401    18347.045 
11340000      33.9955    300.34513   -1936732.8   -1936732.8   -1919573.1    32.443089      6435665    102.10427    102.08976      617.401     18072.73 
11350000      34.9955    299.63447   -1936778.1   -1936778.1   -1919659.1   -138.76929    6436337.7     102.1064     102.0983      617.401    17798.457 
11360000      35.9955    299.86805   -1936743.1   -1936743.1   -1919610.7    53.514748    6436227.9    102.09495    102.10802      617.401    17524.129 
11370000      36.9955    300.07796   -1936727.6   -1936727.6   -1919583.2    46.708796    6436308.8    102.11437    102.08988      617.401    17250.696 
11380000      37.9955    300.07219   -1936729.5   -1936729.5   -1919585.5    84.919101    6436129.9    102.10868    102.09273      617.401    16976.983 
11390000      38.9955    299.95371   -1936784.1   -1936784.1   -1919646.9    387.04445    6436714.1    102.11353    102.09714      617.401    16703.421 
11400000      39.9955    299.67082   -1936782.6   -1936782.6   -1919661.4    59.863745    6436460.9    102.10444    102.10222      617.401      16429.6 
11410000      40.9955     300.0374   -1936736.3   -1936736.3   -1919594.2    116.66873    6436774.5    102.10273     102.1089      617.401    16156.112 
11420000      41.9955     300.2908   -1936764.8   -1936764.8   -1919608.3     205.2949    6436826.6    102.10135    102.11111      617.401    15882.383 
11430000      42.9955     299.7249   -1936747.6   -1936747.6   -1919623.4    171.95862    6436494.8    102.09766    102.10954      617.401    15608.314 
11440000      43.9955    299.91942     -1936764     -1936764   -1919628.7    49.328477    6438298.9    102.12131     102.1145      617.401    15334.408 
11450000      44.9955     299.9203   -1936773.2   -1936773.2   -1919637.8   -192.19387    6437594.2    102.11509    102.10954      617.401    15060.814 
11460000      45.9955    299.89758   -1936768.1   -1936768.1     -1919634    102.34249    6437436.6    102.11972    102.10242      617.401    14787.023 
11470000      46.9955    299.78303   -1936768.4   -1936768.4   -1919640.8    371.61088    6436398.8    102.09954    102.10614      617.401    14513.232 
11480000      47.9955    300.28091   -1936755.4   -1936755.4   -1919599.4   -41.927194    6436421.1    102.10187    102.10416      617.401    14239.313 
11490000      48.9955     299.9313   -1936787.1   -1936787.1   -1919651.1    41.151397    6436890.4    102.10628    102.10719      617.401    13965.608 
11500000      49.9955    300.14444   -1936778.5   -1936778.5   -1919630.3    62.208013    6435944.1    102.09965    102.09881      617.401    13691.864 
11510000      50.9955    300.07093     -1936766     -1936766     -1919622    163.66282      6435897    102.08998    102.10774      617.401    13418.129 
11520000      51.9955    300.06887   -1936776.7   -1936776.7   -1919632.8   -136.87554      6436073    102.09717    102.10333      617.401    13144.532 
11530000      52.9955    299.86561   -1936735.8   -1936735.8   -1919603.5    122.76941    6435880.1     102.0977    102.09975      617.401    12870.812 
11540000      53.9955    299.63259   -1936729.1   -1936729.1   -1919610.1   -259.04107      6435858    102.09553    102.10156      617.401    12597.185 
11550000      54.9955     299.9895   -1936777.6   -1936777.6   -1919638.3   -59.399598    6435533.9    102.10246    102.08949      617.401    12323.253 
11560000      55.9955    300.30963   -1936717.7   -1936717.7   -1919560.1   -298.53976    6434864.1    102.08761    102.09371      617.401    12049.443 
11570000      56.9955    299.95152   -1936751.7   -1936751.7   -1919614.6    102.67147    6434615.7    102.08842    102.08896      617.401    11775.413 
11580000      57.9955    299.90992   -1936778.7   -1936778.7   -1919643.9    9.5154565    6435314.3     102.0892    102.09926      617.401    11501.425 
11590000      58.9955    300.15296   -1936757.3   -1936757.3   -1919608.7   -416.47349    6434785.1    102.07914    102.10093      617.401    11227.543 
11600000      59.9955    300.01634   -1936758.2   -1936758.2   -1919617.3   -292.10962    6435159.9    102.08788    102.09814      617.401    10954.014 
11610000      60.9955    300.05621   -1936758.1   -1936758.1   -1919614.9    219.00669    6435051.3    102.08746    102.09683      617.401    10680.192 
11620000      61.9955    300.06318   -1936761.5   -1936761.5     -1919618    153.00361    6435209.6    102.08469    102.10212      617.401    10406.324 
11630000      62.9955     300.1044   -1936739.6   -1936739.6   -1919593.7    224.16934    6435361.1    102.09388    102.09533      617.401    10132.729 
11640000      63.9955    299.92246   -1936792.5   -1936792.5     -1919657    94.736001      6435916    102.09998    102.09803      617.401    9859.1581 
11650000      64.9955       300.09   -1936752.6   -1936752.6   -1919607.5   -70.848764    6435888.7    102.08872    102.10886      617.401    9585.3868 
11660000      65.9955    300.01193   -1936754.6   -1936754.6     -1919614   -206.88407      6436434    102.10376    102.10248      617.401    9311.6281 
11670000      66.9955    300.14063   -1936765.1   -1936765.1   -1919617.1     310.1074    6435837.6    102.09781    102.09896      617.401    9037.9712 
11680000      67.9955    299.90543   -1936756.1   -1936756.1   -1919621.5    277.83844    6436878.5    102.10425    102.10903      617.401    8764.2586 
11690000      68.9955    300.06922   -1936770.1   -1936770.1   -1919626.2    27.364084    6436247.6    102.09778     102.1055      617.401    8490.4228 
11700000      69.9955    299.96494   -1936756.5   -1936756.5   -1919618.5    1.2129179    6436526.8    102.10621    102.10149      617.401    8216.7596 
11710000      70.9955    300.01228   -1936742.2   -1936742.2   -1919601.6    153.30899    6436438.4    102.10061    102.10569      617.401    7942.9987 
11720000      71.9955    300.28114   -1936764.5   -1936764.5   -1919608.5   -246.25982    6436481.9    102.10671    102.10029      617.401    7669.2176 
11730000      72.9955    300.07927   -1936741.4   -1936741.4   -1919596.9    200.81626      6436959    102.10908    102.10548      617.401    7395.3726 
11740000      73.9955    300.13081   -1936795.3   -1936795.3   -1919647.9    130.46888    6437025.9     102.1054    102.11022      617.401    7121.5516 
11750000      74.9955     300.0378   -1936736.6   -1936736.6   -1919594.5    354.71492    6435345.5     102.0914    102.09756      617.401    6847.6753 
11760000      75.9955    300.19903   -1936779.3   -1936779.3     -1919628    365.37756    6436360.9    102.09342    102.11166      617.401    6573.8383 
11770000      76.9955    299.97081   -1936706.3   -1936706.3     -1919568    203.52018    6436417.2    102.10219    102.10378      617.401    6300.0591 
11780000      77.9955    299.92722     -1936739     -1936739   -1919603.2    233.07531    6435926.3    102.09749    102.10069      617.401    6026.2299 
11790000      78.9955    299.96284   -1936767.9   -1936767.9   -1919630.1    394.96129    6435409.1     102.0884    102.10157      617.401    5752.3601 
11800000      79.9955    299.97437   -1936735.9   -1936735.9   -1919597.5    52.971818    6435648.4    102.09786    102.09591      617.401    5478.4635 
11810000      80.9955    300.20794   -1936775.6   -1936775.6   -1919623.8   -93.409519    6435274.7    102.09695    102.09089      617.401    5204.6378 
11820000      81.9955      299.914   -1936787.4   -1936787.4   -1919652.3    169.37041    6435803.9    102.09263     102.1036      617.401    4930.7817 
11830000      82.9955    299.84825   -1936759.6   -1936759.6   -1919628.3    70.151357    6435198.8    102.08066    102.10597      617.401     4656.902 
11840000      83.9955    299.76136   -1936774.2   -1936774.2   -1919647.9    -724.6423    6436015.8    102.10388    102.09572      617.401    4383.0558 
11850000      84.9955     300.0191   -1936742.3   -1936742.3   -1919601.3     140.3234    6434460.1     102.0849    102.09002      617.401    4109.1715 
11860000      85.9955    300.11201     -1936773     -1936773   -1919626.7   -45.665038      6435712    102.08865    102.10613      617.401     3835.273 
11870000      86.9955    299.84206   -1936761.1   -1936761.1   -1919630.2   -69.717319      6436246    102.10095     102.1023      617.401    3561.4646 
11880000      87.9955    299.80411   -1936786.3   -1936786.3   -1919657.6   -1.7233447      6435151    102.09356    102.09232      617.401    3287.6216 
11890000      88.9955    300.02485   -1936781.9   -1936781.9   -1919640.5    281.21765    6435537.7    102.09307    102.09894      617.401    3013.7302 
11900000      89.9955    299.78907   -1936756.6   -1936756.6   -1919628.7    71.045669    6435841.2    102.10212    102.09471      617.401    2739.8371 
11910000      90.9955    299.90095     -1936763     -1936763   -1919628.7   -385.23174    6436375.6    102.10239    102.10291      617.401    2465.9599 
11920000      91.9955    300.22358   -1936803.5   -1936803.5   -1919650.8   -22.472126    6435445.9    102.10012    102.09044      617.401    2192.0722 
11930000      92.9955    299.82222   -1936783.4   -1936783.4   -1919653.6   -348.60368    6436173.8    102.09721     102.1049      617.401    1918.1986 
11940000      93.9955    300.14484   -1936767.9   -1936767.9   -1919619.6    139.72669    6435954.2    102.09937    102.09925      617.401    1644.3218 
11950000      94.9955    299.79336   -1936768.5   -1936768.5   -1919640.4     25.32754    6436498.3     102.1013    102.10595      617.401    1370.5051 
11960000      95.9955    299.65006     -1936771     -1936771   -1919651.1   -245.87475    6436758.3    102.10474    102.10664      617.401    1096.6559 
11970000      96.9955    300.00075   -1936762.2   -1936762.2   -1919622.2    211.59333    6436787.7     102.1084    102.10345      617.401    822.80129 
11980000      97.9955    300.20316   -1936762.9   -1936762.9   -1919611.4    197.53156    6436367.8    102.10431    102.10087      617.401    548.94647 
11990000      98.9955    299.97474   -1936735.4   -1936735.4   -1919596.9    228.94607    6436602.8    102.10306    102.10585      617.401    275.08956 
12000000      99.9955    299.84731   -1936736.2   -1936736.2   -1919604.9   -65.516282    6437009.6    102.10482    102.11054      617.401    1.2323421 
12000045          100     300.1675   -1936740.8   -1936740.8   -1919591.3    347.65041    6436384.6    102.10973    102.09572      617.401            0 
Loop time of 27385.4 on 96 procs for 1000000 steps with 442002 atoms

Performance: 0.315 ns/day, 76.070 hours/ns, 36.516 timesteps/s
100.0% CPU use with 96 MPI tasks x 1 OpenMP threads

MPI task timing breakdown:
Section |  min time  |  avg time  |  max time  |%varavg| %total
---------------------------------------------------------------
Pair    | 3.2688     | 20251      | 26341      |4171.5 | 73.95
Neigh   | 0.0055451  | 26.284     | 39.528     | 230.2 |  0.10
Comm    | 1.1656     | 2677.4     | 7427.1     |4454.8 |  9.78
Output  | 2.0291     | 2.0307     | 2.0484     |   0.2 |  0.01
Modify  | 536.79     | 4348.7     | 27271      |9795.0 | 15.88
Other   |            | 79.84      |            |       |  0.29

Nlocal:        4604.19 ave        6317 max           0 min
Histogram: 12 0 0 0 0 0 12 22 22 28
Nghost:        8310.77 ave       11114 max           0 min
Histogram: 12 0 0 0 0 11 1 0 41 31
Neighs:         0.00000 ave           0 max           0 min
Histogram: 96 0 0 0 0 0 0 0 0 0
FullNghs:      877133.0 ave 1.34842e+06 max           0 min
Histogram: 12 0 0 8 4 12 12 12 12 24

Total # of neighbors = 84204728
Ave neighs/atom = 190.50757
Neighbor list builds = 1083
Dangerous builds = 0
System init for write_restart ...
System init for write_data ...
Total wall time: 7:36:26
