LAMMPS (29 Sep 2021)
  using 1 OpenMP thread(s) per MPI task
Reading data file ...
  orthogonal box = (-0.55769526 -0.47818063 0.0000000) to (101.85676 101.77725 528.38451)
  3 by 2 by 16 MPI processor grid
  reading atoms ...
  434962 atoms
  reading velocities ...
  434962 velocities
  read_data CPU = 4.538 seconds
217465 atoms in group g_left
217497 atoms in group g_right

CITE-CITE-CITE-CITE-CITE-CITE-CITE-CITE-CITE-CITE-CITE-CITE-CITE

Your simulation uses code contributions which should be cited:
- @article{cjiang2012
The log file lists these citations in BibTeX format.

CITE-CITE-CITE-CITE-CITE-CITE-CITE-CITE-CITE-CITE-CITE-CITE-CITE

Neighbor list info ...
  update every 1 steps, delay 10 steps, check yes
  max neighbors/atom: 2000, page size: 100000
  master list distance cutoff = 8.28721
  ghost atom cutoff = 8.28721
  binsize = 4.143605, bins = 25 25 128
  3 neighbor lists, perpetual/occasional/extra = 3 0 0
  (1) pair eam/alloy, perpetual, skip from (3)
      attributes: half, newton on
      pair build: skip
      stencil: none
      bin: none
  (2) pair edip/multi, perpetual
      attributes: full, newton on
      pair build: full/bin/atomonly
      stencil: full/bin/3d
      bin: standard
  (3) neighbor class addition, perpetual, half/full from (2)
      attributes: half, newton on
      pair build: halffull/newton
      stencil: none
      bin: none
Setting up Verlet run ...
  Unit style    : metal
  Current step  : 0
  Time step     : 0.00025
Per MPI rank memory allocation (min/avg/max) = 8.763 | 12.51 | 14.56 Mbytes
Step Time Temp Press PotEng KinEng TotEng Volume 
       0            0    8343.4277    87239.651   -1918186.5    469093.55   -1449092.9    5533471.8 
     100        0.025    8342.5701    87416.411     -1918180    469045.34   -1449134.7    5522999.4 
     200         0.05    8342.2147    87605.035   -1918180.5    469025.36   -1449155.2      5512527 
     300        0.075    8341.9373    87689.285   -1918165.5    469009.76   -1449155.8    5502054.5 
     400          0.1    8342.2523     87917.94   -1918170.2    469027.47   -1449142.7    5491582.1 
     500        0.125    8342.0746    88034.756   -1918178.3    469017.48   -1449160.8    5481109.7 
     600         0.15    8341.7755    88199.805   -1918178.8    469000.66   -1449178.2    5470637.2 
     700        0.175    8341.9094    88432.092   -1918177.6    469008.19   -1449169.4    5460164.8 
     800          0.2    8341.5243    88690.157   -1918163.4    468986.54   -1449176.9    5449692.4 
     900        0.225     8341.216    88654.398     -1918161     468969.2   -1449191.8    5439219.9 
    1000         0.25    8341.9508     88741.14   -1918197.7    469010.52   -1449187.2    5428747.5 
    1100        0.275      8341.99    88854.945   -1918200.4    469012.72   -1449187.7    5418275.1 
    1200          0.3    8341.0885    89211.921   -1918147.3    468962.04   -1449185.3    5407802.6 
    1300        0.325    8341.7619    89341.877     -1918174     468999.9   -1449174.1    5397330.2 
    1400         0.35    8341.7299    89612.298   -1918183.9     468998.1   -1449185.9    5386857.8 
    1500        0.375    8341.4905    89686.817   -1918177.6    468984.64   -1449192.9    5376385.3 
    1600          0.4    8341.7216    89841.971   -1918177.7    468997.63   -1449180.1    5365912.9 
    1700        0.425    8341.5678    89861.441   -1918166.9    468988.98   -1449177.9    5355440.5 
    1800         0.45    8341.6783    90303.915   -1918184.2     468995.2     -1449189      5344968 
    1900        0.475    8341.5233    90643.308   -1918181.5    468986.48     -1449195    5334495.6 
    2000          0.5    8341.1942    90427.616   -1918181.7    468967.98   -1449213.7    5324023.2 
    2100        0.525     8341.319    90683.375   -1918192.4       468975   -1449217.4    5313550.7 
    2200         0.55    8340.6784    90693.381   -1918158.1    468938.98   -1449219.1    5303078.3 
    2300        0.575    8340.4155    91045.466   -1918168.8     468924.2   -1449244.6    5292605.9 
    2400          0.6     8341.697    91143.542   -1918247.9    468996.25   -1449251.7    5282133.4 
    2500        0.625     8343.535    91378.991   -1918338.9    469099.59   -1449239.3      5271661 
    2600         0.65    8342.8628     92053.47   -1918299.9     469061.8   -1449238.1    5261188.6 
    2700        0.675     8324.208    95930.834   -1917260.8    468012.96   -1449247.9    5250716.1 
    2800          0.7    8281.0772    103099.93   -1914836.2    465588.01   -1449248.2    5240243.7 
    2900        0.725    8235.5745    110853.79   -1912260.9    463029.71   -1449231.1    5229771.3 
    3000         0.75     8190.847     118115.1     -1909731    460514.99     -1449216    5219298.8 
    3100        0.775    8141.3737    124655.49   -1906932.1    457733.45   -1449198.7    5208826.4 
    3200          0.8    8096.8701    128563.99     -1904443    455231.31   -1449211.7      5198354 
    3300        0.825    8051.9419    131786.76   -1901919.2    452705.31   -1449213.9    5187881.5 
    3400         0.85    8002.1606    136416.59   -1899118.7    449906.45   -1449212.3    5177409.1 
    3500        0.875     7948.722    141382.22   -1896108.1    446901.96   -1449206.1    5166936.7 
    3600          0.9    7897.8398    146089.59   -1893259.6    444041.21   -1449218.4    5156464.2 
    3700        0.925    7845.6332    150864.57   -1890342.1    441105.99   -1449236.1    5145991.8 
    3800         0.95    7793.6708    156550.57     -1887413     438184.5   -1449228.5    5135519.4 
    3900        0.975    7742.9017    161809.67   -1884557.7    435330.11   -1449227.6    5125046.9 
    4000            1    7688.9172    166662.52     -1881526    432294.93   -1449231.1    5114574.5 
    4100        1.025    7635.7338    172302.42   -1878532.1    429304.79   -1449227.3    5104102.1 
    4200         1.05    7583.1598    176901.33   -1875566.2    426348.92   -1449217.2    5093629.6 
    4300        1.075    7527.1141     182338.4   -1872416.9    423197.86   -1449219.1    5083157.2 
    4400          1.1    7474.9576    187516.86   -1869477.2    420265.45   -1449211.7    5072684.8 
    4500        1.125    7421.2505    192978.19   -1866434.1    417245.87   -1449188.2    5062212.3 
    4600         1.15    7367.7603    198352.84   -1863399.9    414238.49   -1449161.4    5051739.9 
    4700        1.175    7311.6406     204065.1   -1860239.4    411083.26   -1449156.2    5041267.5 
    4800          1.2    7255.2282    209321.82   -1857063.2    407911.58   -1449151.6      5030795 
    4900        1.225    7202.3499    214902.09   -1854096.4    404938.59   -1449157.8    5020322.6 
    5000         1.25    7145.2829    220937.06   -1850892.1    401730.11     -1449162    5009850.2 
    5100        1.275    7091.0831    226450.68   -1847835.3    398682.83   -1449152.5    4999377.7 
    5200          1.3    7034.6667    232096.23   -1844653.3    395510.92   -1449142.4    4988905.3 
    5300        1.325    6978.4371    237647.59   -1841505.2    392349.52   -1449155.7    4978432.9 
    5400         1.35    6924.7691    243553.45   -1838485.1    389332.14     -1449153    4967960.4 
    5500        1.375    6864.1242    249527.35   -1835074.3    385922.49   -1449151.8      4957488 
    5600          1.4    6809.5971    255254.56   -1832014.4    382856.81   -1449157.6    4947015.5 
    5700        1.425    6752.5873    260639.55   -1828821.5    379651.54   -1449169.9    4936543.1 
    5800         1.45     6698.217       266578   -1825751.8    376594.67   -1449157.2    4926070.7 
    5900        1.475    6639.3566    272649.63   -1822425.2    373285.36   -1449139.8    4915598.2 
    6000          1.5    6583.3867    278681.26   -1819263.5    370138.55   -1449124.9    4905125.8 
    6100        1.525    6527.6624    284883.22   -1816143.4    367005.56   -1449137.9    4894653.4 
    6200         1.55    6470.0798    290208.73   -1812908.5    363768.09   -1449140.5    4884180.9 
    6300        1.575    6412.8599    296221.78   -1809688.8       360551   -1449137.8    4873708.5 
    6400          1.6    6355.5219    302125.82   -1806477.7    357327.28   -1449150.4    4863236.1 
    6500        1.625    6300.8942    308824.51   -1803398.7    354255.94   -1449142.8    4852763.6 
    6600         1.65    6238.9267    314507.13   -1799898.4    350771.94   -1449126.5    4842291.2 
    6700        1.675     6222.495    318391.19   -1798962.1     349848.1     -1449114    4831818.8 
    6800          1.7     6226.902    318977.14   -1799213.5    350095.87   -1449117.6    4821346.3 
    6900        1.725    6201.4715    319011.73   -1797781.4    348666.09   -1449115.3    4810873.9 
    7000         1.75     6190.013    320296.11   -1797128.3    348021.86   -1449106.4    4800401.5 
    7100        1.775    6188.5229    322043.11   -1797040.8    347938.08   -1449102.7      4789929 
    7200          1.8    6160.1873    323844.39   -1795432.9    346344.96   -1449087.9    4779456.6 
    7300        1.825     6182.753    324062.98   -1796697.7    347613.67     -1449084    4768984.2 
    7400         1.85    6153.4343    324481.63     -1795067    345965.29   -1449101.7    4758511.7 
    7500        1.875    6155.0412    325356.14   -1795187.3    346055.63   -1449131.7    4748039.3 
    7600          1.9    6159.9334     327294.6   -1795458.3    346330.69   -1449127.6    4737566.9 
    7700        1.925    6139.9011    328703.54   -1794323.9    345204.41   -1449119.4    4727094.4 
    7800         1.95    6159.6022    328924.94   -1795428.5    346312.07   -1449116.4      4716622 
    7900        1.975    6128.6371    329520.42   -1793699.3    344571.11   -1449128.2    4706149.6 
    8000            2    6109.8733    332593.65   -1792642.8    343516.15   -1449126.7    4695677.1 
    8100        2.025    6065.3008    336622.17   -1790123.9    341010.14   -1449113.8    4685204.7 
    8200         2.05    6010.3788    339405.61   -1787047.8    337922.26   -1449125.5    4674732.3 
    8300        2.075    5980.1693    343436.04   -1785358.1    336223.79   -1449134.3    4664259.8 
    8400          2.1    5915.1746    347155.35   -1781707.9    332569.58   -1449138.3    4653787.4 
    8500        2.125    5878.8021    350481.59   -1779656.5    330524.61   -1449131.9      4643315 
    8600         2.15     5817.788    354485.37   -1776205.2    327094.21     -1449111    4632842.5 
    8700        2.175    5779.6676    359111.11   -1774045.8    324950.95   -1449094.9    4622370.1 
    8800          2.2    5720.0715    362109.91   -1770689.2    321600.28   -1449088.9    4611897.7 
    8900        2.225    5664.3255    366297.33   -1767568.7    318466.06   -1449102.7    4601425.2 
    9000         2.25    5607.7706    370985.44   -1764391.1    315286.37   -1449104.7    4590952.8 
    9100        2.275    5551.0061     375369.7   -1761204.4    312094.89   -1449109.5    4580480.4 
    9200          2.3    5492.6557    379571.31   -1757932.1    308814.25   -1449117.8    4570007.9 
    9300        2.325    5432.0585    384400.32   -1754513.7    305407.29   -1449106.4    4559535.5 
    9400         2.35    5366.8364    388697.42   -1750839.4     301740.3   -1449099.1    4549063.1 
    9500        2.375    5298.8462    394823.65   -1747028.2    297917.68   -1449110.6    4538590.6 
    9600          2.4    5230.8894    400097.66   -1743212.3    294096.93   -1449115.4    4528118.2 
    9700        2.425    5158.0843     406129.2   -1739105.8     290003.6   -1449102.2    4517645.8 
    9800         2.45    5084.4591    411712.79   -1734961.4    285864.16   -1449097.2    4507173.3 
    9900        2.475      5010.68    418510.38   -1730815.9    281716.07   -1449099.9    4496700.9 
   10000          2.5     4933.292    425415.03   -1726470.7    277365.08   -1449105.6    4486228.5 
   10100        2.525    4857.0685    431603.75   -1722189.4    273079.55   -1449109.9      4475756 
   10200         2.55    4782.3776    438850.97   -1717996.7     268880.2   -1449116.5    4465283.6 
   10300        2.575    4705.8206    445584.37   -1713682.7    264575.92   -1449106.8    4454811.2 
   10400          2.6    4633.9887    452616.68   -1709650.6    260537.31   -1449113.3    4444338.7 
   10500        2.625    4566.6199    459844.53     -1705860    256749.63   -1449110.4    4433866.3 
   10600         2.65    4499.5992    466986.02   -1702090.1    252981.51   -1449108.5    4423393.9 
   10700        2.675    4436.0568    474591.23   -1698533.1    249408.96   -1449124.1    4412921.4 
   10800          2.7    4377.2827    480502.62   -1695233.1     246104.5   -1449128.6      4402449 
   10900        2.725    4320.0592    487403.51   -1692017.4    242887.22   -1449130.2    4391976.6 
   11000         2.75    4263.5152     493736.7   -1688838.4    239708.14   -1449130.3    4381504.1 
   11100        2.775    4212.4661    499633.72   -1685956.2       236838   -1449118.2    4371031.7 
   11200          2.8    4163.5811    505958.46   -1683194.7    234089.53   -1449105.1    4360559.2 
   11300        2.825     4114.016    512845.29   -1680403.8    231302.82     -1449101    4350086.8 
   11400         2.85    4063.8407     519042.3   -1677584.6    228481.81   -1449102.8    4339614.4 
   11500        2.875    4014.6906    526983.98   -1674840.5    225718.44   -1449122.1    4329141.9 
   11600          2.9    3978.8593    533700.82   -1672827.6    223703.89   -1449123.7    4318669.5 
   11700        2.925    3989.2234    536998.57   -1673407.9    224286.59   -1449121.3    4308197.1 
   11800         2.95    3983.2985    540123.74   -1673074.5    223953.47     -1449121    4297724.6 
   11900        2.975    3972.9957    542718.29   -1672481.1    223374.22   -1449106.9    4287252.2 
   12000            3    3982.2515    545755.09     -1673004    223894.61   -1449109.4    4276779.8 
   12100        3.025    3956.7135    549016.79   -1671573.2    222458.79   -1449114.4    4266307.3 
   12200         3.05    3967.6794    551809.48   -1672201.5    223075.33   -1449126.1    4255834.9 
   12300        3.075    3965.8862    552958.61   -1672093.4     222974.5   -1449118.9    4245362.5 
   12400          3.1    3950.2975    555471.84   -1671211.4    222098.06   -1449113.3      4234890 
   12500        3.125    3979.6158    557799.17   -1672855.4    223746.42     -1449109    4224417.6 
   12600         3.15    3959.3541    560692.44   -1671706.4    222607.25   -1449099.1    4213945.2 
   12700        3.175    3986.3727    562892.23   -1673219.5    224126.32   -1449093.2    4203472.7 
   12800          3.2    3981.3956    564634.77   -1672927.8    223846.49   -1449081.3    4193000.3 
   12900        3.225    3983.2938    567791.67   -1673043.6    223953.21   -1449090.4    4182527.9 
   13000         3.25    3970.6076    573261.45   -1672321.7    223239.96   -1449081.8    4172055.4 
   13100        3.275    3921.3572     578942.1   -1669543.2    220470.94   -1449072.3      4161583 
   13200          3.3    3898.7986     584294.9   -1668281.5    219202.63   -1449078.9    4151110.6 
   13300        3.325    3844.0945    591037.38   -1665215.7    216126.99   -1449088.7    4140638.1 
   13400         3.35    3807.6105    597825.97   -1663168.2    214075.75   -1449092.4    4130165.7 
   13500        3.375    3745.8335    605996.36   -1659685.3    210602.45   -1449082.9    4119693.3 
   13600          3.4    3695.1925    614376.44   -1656847.7    207755.26   -1449092.5    4109220.8 
   13700        3.425    3635.0726    621780.19   -1653459.9    204375.13   -1449084.8    4098748.4 
   13800         3.45    3554.6158    630234.05   -1648939.3     199851.6   -1449087.7      4088276 
   13900        3.475    3484.0546    640902.38   -1644961.6    195884.43   -1449077.2    4077803.5 
   14000          3.5    3404.8332    651454.55   -1640494.5    191430.35   -1449064.2    4067331.1 
   14100        3.525    3331.6602    661700.09   -1636360.1    187316.34   -1449043.7    4056858.7 
   14200         3.55    3244.4649    672899.55   -1631448.9    182413.94     -1449035    4046386.2 
   14300        3.575    3170.0955    683691.93   -1627283.2    178232.66   -1449050.5    4035913.8 
   14400          3.6    3088.8838    694375.39     -1622724    173666.69   -1449057.3    4025441.4 
   14500        3.625    3011.3978    706086.44   -1618375.8    169310.19   -1449065.6    4014968.9 
   14600         3.65    2935.9176    716848.84   -1614151.7    165066.45   -1449085.2    4004496.5 
   14700        3.675    2862.6635     727440.5   -1610039.2    160947.88   -1449091.3    3994024.1 
   14800          3.7    2790.1043    737172.23     -1605964    156868.37   -1449095.7    3983551.6 
   14900        3.725    2726.4018    746504.15   -1602381.6    153286.82   -1449094.8    3973079.2 
   15000         3.75    2661.7055    754922.13   -1598755.1    149649.39   -1449105.7    3962606.8 
   15100        3.775    2603.5144    764011.36   -1595489.4    146377.71   -1449111.7    3952134.3 
   15200          3.8    2545.8091       772149   -1592256.9    143133.34   -1449123.6    3941661.9 
   15300        3.825    2497.4556    781786.53   -1589531.6    140414.75   -1449116.9    3931189.5 
   15400         3.85    2441.9516    789304.67   -1586415.6    137294.14   -1449121.4      3920717 
   15500        3.875    2393.5994    798607.75   -1583706.9    134575.63   -1449131.3    3910244.6 
   15600          3.9    2345.5888    806735.32   -1581019.3    131876.33     -1449143    3899772.2 
   15700        3.925    2299.2685    815283.79   -1578418.1    129272.05   -1449146.1    3889299.7 
   15800         3.95    2257.1474    824032.72   -1576053.4    126903.87   -1449149.6    3878827.3 
   15900        3.975    2215.0469    832434.95   -1573691.6    124536.85   -1449154.7    3868354.9 
   16000            4    2175.3482    840700.59     -1571463    122304.86   -1449158.1    3857882.4 
   16100        4.025    2134.4442    847669.31     -1569159    120005.12   -1449153.9      3847410 
   16200         4.05    2089.1385    857026.38   -1566615.7    117457.89   -1449157.9    3836937.6 
   16300        4.075    2046.3494    865139.78   -1564208.4    115052.15   -1449156.3    3826465.1 
   16400          4.1    2006.8972    873211.38   -1561991.6    112834.03   -1449157.6    3815992.7 
   16500        4.125    1968.6265    881400.57   -1559846.8    110682.33   -1449164.4    3805520.3 
   16600         4.15     1934.861    888788.06   -1557961.2    108783.93   -1449177.3    3795047.8 
   16700        4.175    1947.6677    890651.88   -1558691.8    109503.96   -1449187.8    3784575.4 
   16800          4.2    1949.8131    889660.91   -1558830.9    109624.58   -1449206.3    3774102.9 
   16900        4.225    1943.2038    888633.59   -1558459.5    109252.98   -1449206.5    3763630.5 
   17000         4.25    1958.5085    887233.78   -1559284.2    110113.46   -1449170.7    3753158.1 
   17100        4.275    1951.3153    889411.68   -1558711.3    109709.04   -1449002.3    3742685.6 
   17200          4.3    1952.2063    888872.26   -1558352.7    109759.13   -1448593.6    3732213.2 
   17300        4.325    1982.3302    892497.17   -1553917.6    111452.79   -1442464.8    3721740.8 
   17400         4.35    2053.3389    896989.19     -1547495    115445.13   -1432049.9    3711268.3 
   17500        4.375    2073.6636    900623.97   -1540417.1    116587.84   -1423829.3    3700795.9 
   17600          4.4    2085.2596     908388.4   -1533486.8     117239.8     -1416247    3690323.5 
   17700        4.425    2110.6335    920639.82   -1524456.3     118666.4   -1405789.9      3679851 
   17800         4.45    2136.0518    931094.56   -1515944.1     120095.5   -1395848.6    3669378.6 
   17900        4.475    2095.5146    942824.82   -1504701.3    117816.38   -1386884.9    3658906.2 
   18000          4.5    2148.3389    958284.74   -1494405.8    120786.32   -1373619.5    3648433.7 
   18100        4.525     2226.018    973993.82   -1482299.2    125153.68   -1357145.5    3637961.3 
   18200         4.55    2269.8003     991676.6   -1470571.4    127615.26   -1342956.2    3627488.9 
   18300        4.575    2305.3747    1012708.6   -1457389.7    129615.36   -1327774.3    3617016.4 
   18400          4.6    2414.6191    1032097.5     -1445254    135757.42   -1309496.6      3606544 
   18500        4.625    2485.8905    1051623.7   -1431999.6    139764.52   -1292235.1    3596071.6 
   18600         4.65    2583.3611    1072547.7   -1419950.1    145244.63   -1274705.5    3585599.1 
   18700        4.675    2698.7059    1093564.4   -1407303.6    151729.67   -1255573.9    3575126.7 
   18800          4.7    2815.6521    1115642.2   -1395444.8    158304.75   -1237140.1    3564654.3 
   18900        4.725    2927.9878    1139020.8   -1383750.5    164620.61   -1219129.9    3554181.8 
   19000         4.75    3058.5566    1160239.2   -1372672.6     171961.6     -1200711    3543709.4 
   19100        4.775    3194.8616    1183029.1   -1361764.6    179625.09   -1182139.5      3533237 
   19200          4.8    3330.8854    1205766.7   -1351018.1    187272.77   -1163745.3    3522764.5 
   19300        4.825    3456.0218    1229686.9   -1340276.4    194308.34     -1145968    3512292.1 
   19400         4.85    3553.5015    1254897.9   -1328115.6    199788.95   -1128326.7    3501819.7 
   19500        4.875    3638.6934    1281097.2   -1314681.3     204578.7   -1110102.6    3491347.2 
   19600          4.9    3702.9325    1307186.4     -1300559    208190.43   -1092368.6    3480874.8 
   19700        4.925    3760.3181    1334618.1   -1286545.4    211416.82   -1075128.6    3470402.4 
   19800         4.95    3823.3558    1361438.3   -1272586.2       214961   -1057625.2    3459929.9 
   19900        4.975    3910.7799    1387039.4   -1259934.9    219876.26   -1040058.6    3449457.5 
   20000            5    4086.6022    1406727.3   -1252556.6    229761.53   -1022795.1    3438985.1 
   20100        5.025    4296.4088    1416542.9   -1247195.3    241557.52   -1005637.8    3428512.6 
   20200         5.05    4470.7047    1423617.8   -1239611.8    251356.98   -988254.87    3418040.2 
   20300        5.075    4695.2361    1431849.4   -1234896.2    263980.83   -970915.38    3407567.8 
   20400          5.1    4917.7316    1443898.9   -1229990.5    276490.23   -953500.25    3397095.3 
   20500        5.125     5132.482    1457410.1   -1224485.4    288564.16   -935921.29    3386622.9 
   20600         5.15    5322.3623    1474161.2   -1217188.2    299239.83   -917948.36    3376150.5 
   20700        5.175    5454.4871    1493913.1   -1206147.4    306668.29   -899479.09      3365678 
   20800          5.2     5605.742    1515803.6   -1195604.5    315172.31   -880432.15    3355205.6 
   20900        5.225    5728.0217    1539777.9   -1182736.1    322047.26   -860688.83    3344733.2 
   21000         5.25    5866.5769    1566935.5   -1170239.1    329837.27   -840401.83    3334260.7 
   21100        5.275    5982.7162    1594766.5   -1156334.1    336366.98   -819967.14    3323788.3 
   21200          5.3    6095.8178    1621541.5   -1142161.6    342725.91   -799435.74    3313315.9 
   21300        5.325    6206.5346    1650805.4   -1128093.1    348950.75   -779142.32    3302843.4 
   21400         5.35    6311.8543      1679023     -1114138    354872.16   -759265.87      3292371 
   21500        5.375    6417.5878    1706663.3   -1100625.3    360816.82   -739808.44    3281898.6 
   21600          5.4    6506.0603    1734158.5   -1087153.6    365791.02   -721362.57    3271426.1 
   21700        5.425    6573.4589    1762923.1   -1073833.4    369580.38   -704253.04    3260953.7 
   21800         5.45    6610.0552    1793271.3   -1060151.2    371637.94    -688513.3    3250481.3 
   21900        5.475    6614.9001    1822200.1   -1046012.2    371910.33   -674101.85    3240008.8 
   22000          5.5    6580.0243    1850883.3   -1031368.5    369949.51   -661418.96    3229536.4 
   22100        5.525    6530.5135    1880689.5   -1017093.3    367165.86   -649927.41    3219063.9 
   22200         5.55    6463.4085    1909474.3   -1002956.5       363393   -639563.53    3208591.5 
   22300        5.575    6394.1752      1936441   -989371.05    359500.49   -629870.55    3198119.1 
   22400          5.6     6340.297    1961915.7   -976897.14    356471.29   -620425.84    3187646.6 
   22500        5.625    6347.7493    1985488.7   -967824.26    356890.28   -610933.97    3177174.2 
   22600         5.65    6433.5152    2000278.6   -963112.51    361712.31    -601400.2    3166701.8 
   22700        5.675    6517.7881    2008861.2   -958039.28     366450.4   -591588.88    3156229.3 
   22800          5.7    6634.3273      2014686   -954356.63    373002.59   -581354.04    3145756.9 
   22900        5.725    6787.3612    2023187.8   -951984.93    381606.63    -570378.3    3135284.5 
   23000         5.75    6976.5458    2032116.2   -949813.71    392243.19   -557570.52      3124812 
   23100        5.775    7182.8557    2046670.5   -945965.98    403842.57   -542123.41    3114339.6 
   23200          5.8    7427.7735    2064067.3   -942148.01    417612.62   -524535.39    3103867.2 
   23300        5.825    7642.7139    2083743.9   -936096.17    429697.24   -506398.93    3093394.7 
   23400         5.85    7833.3151    2105781.3   -928558.23    440413.43    -488144.8    3082922.3 
   23500        5.875    8013.4542    2128918.5   -919341.42    450541.41   -468800.01    3072449.9 
   23600          5.9    8220.4733    2153861.7   -910187.67    462180.67      -448007    3061977.4 
   23700        5.925    8422.6456    2181576.7   -899860.81    473547.43   -426313.38      3051505 
   23800         5.95     8602.873    2211984.5   -888209.66    483680.38   -404529.28    3041032.6 
   23900        5.975    8783.0877    2242863.7   -876418.82    493812.61   -382606.21    3030560.1 
   24000            6    8931.4965    2275019.7   -862583.24    502156.62   -360426.62    3020087.7 
   24100        6.025    9076.9784    2309732.5   -848485.99    510336.06   -338149.93    3009615.3 
   24200         6.05    9189.1415    2347069.2   -832707.11    516642.23   -316064.88    2999142.8 
   24300        6.075    9303.6486    2384341.3   -816997.54    523080.17   -293917.37    2988670.4 
   24400          6.1    9368.3832    2422125.7   -798965.06    526719.75   -272245.31      2978198 
   24500        6.125    9436.2158    2460650.7   -781255.43    530533.51   -250721.91    2967725.5 
   24600         6.15    9495.7179    2497829.8   -763406.09     533878.9   -229527.18    2957253.1 
   24700        6.175    9555.7262      2534516   -745929.62    537252.76   -208676.86    2946780.7 
   24800          6.2    9638.7721    2569750.3   -729906.51    541921.86   -187984.65    2936308.2 
   24900        6.225    9740.4592      2604874   -715013.28    547639.02   -167374.26    2925835.8 
   25000         6.25    9860.6051    2642316.6   -701274.31       554394   -146880.31    2915363.4 
   25100        6.275    9995.2477    2683231.2   -688605.13    561964.03    -126641.1    2904890.9 
   25200          6.3    10130.017    2724968.9   -675732.92     569541.2   -106191.72    2894418.5 
   25300        6.325    10212.986    2765616.9   -660262.48    574205.96   -86056.516    2883946.1 
   25400         6.35    10316.213    2795859.6   -645993.58    580009.71   -65983.871    2873473.6 
   25500        6.375     10389.71    2822785.9   -629952.81    584141.93   -45810.879    2863001.2 
   25600          6.4    10441.993    2852383.6   -613045.78    587081.45   -25964.334    2852528.8 
   25700        6.425    10477.242    2886580.7   -595238.43    589063.25   -6175.1849    2842056.3 
   25800         6.45    10506.729    2922504.3   -577563.04    590721.13    13158.086    2831583.9 
   25900        6.475    10493.417    2960137.4   -558046.47    589972.67    31926.195    2821111.5 
   26000          6.5    10456.077    2994699.3   -537963.62     587873.3    49909.685      2810639 
   26100        6.525    10397.583    3036858.8   -517497.77    584584.59    67086.827    2800166.6 
   26200         6.55    10291.772    3080582.8   -495148.59    578635.57    83486.987    2789694.2 
   26300        6.575    10180.703    3121949.6   -473605.79    572390.91    98785.121    2779221.7 
   26400          6.6    10047.679    3166062.8   -451831.49    564911.85    113080.36    2768749.3 
   26500        6.625    9888.0081    3211866.7    -429602.6    555934.68    126332.09    2758276.9 
   26600         6.65    9711.4633    3258925.7   -407326.12    546008.79    138682.66    2747804.4 
   26700        6.675     9523.712    3301890.4    -385148.2    535452.82    150304.62      2737332 
   26800          6.7    9334.3772    3339621.3   -363796.25    524807.83    161011.57    2726859.6 
   26900        6.725    9149.5529      3378686   -343366.06    514416.43    171050.37    2716387.1 
   27000         6.75    8948.4505    3416361.2   -322647.74    503109.82    180462.08    2705914.7 
   27100        6.775    8736.4916    3454833.9   -301714.05    491192.83    189478.78    2695442.3 
   27200          6.8    8513.4254    3492597.1   -280650.09    478651.35    198001.27    2684969.8 
   27300        6.825    8286.6492    3528404.9   -259753.04    465901.29    206148.25    2674497.4 
   27400         6.85    8071.3194      3561760   -239893.06    453794.78    213901.72      2664025 
   27500        6.875    7846.2313    3596560.9   -219546.62    441139.62       221593    2653552.5 
   27600          6.9    7613.3629    3633757.6   -198893.53    428047.03     229153.5    2643080.1 
   27700        6.925    7381.3161    3667733.1   -178085.37    415000.64    236915.27    2632607.6 
   27800         6.95    7166.7272    3699177.4   -157870.81    402935.78    245064.96    2622135.2 
   27900        6.975    6961.0219    3733920.5    -137443.3    391370.38    253927.08    2611662.8 
   28000            7    6767.7539    3769438.3   -116365.51    380504.25    264138.75    2601190.3 
   28100        7.025    6605.6419    3807765.5   -95587.222    371389.81    275802.59    2590717.9 
   28200         7.05    6456.4183    3848231.1   -74084.557       363000    288915.44    2580245.5 
   28300        7.075    6357.0009      3891295   -54063.373    357410.44    303347.07      2569773 
   28400          7.1    6271.1695    3939845.6    -33998.84    352584.73    318585.89    2559300.6 
   28500        7.125    6221.0927    3986975.7   -14905.254    349769.25       334864    2548828.2 
   28600         7.15     6190.833    4036706.1    4225.7502    348067.96    352293.71    2538355.7 
   28700        7.175    6232.0714    4085021.8     20518.69    350386.51     370905.2    2527883.3 
   28800          7.2    6264.7509    4133980.3    37803.225    352223.85    390027.08    2517410.9 
   28900        7.225    6350.9566    4186259.7    52688.731    357070.61    409759.34    2506938.4 
   29000         7.25     6441.295    4238152.4    68102.992    362149.71     430252.7      2496466 
   29100        7.275    6560.2168    4291952.9    82523.879    368835.87    451359.75    2485993.6 
   29200          7.3    6649.4924    4349127.6    98786.024    373855.22    472641.25    2475521.1 
   29300        7.325    6743.3618    4409695.7    115292.13    379132.85    494424.98    2465048.7 
   29400         7.35    6778.2501    4472732.7    135290.07    381094.38    516384.45    2454576.3 
   29500        7.375    6808.3621    4536400.3    156209.38    382787.37    538996.75    2444103.8 
   29600          7.4    6779.5323    4602034.1    180356.97    381166.47    561523.44    2433631.4 
   29700        7.425     6744.709      4667220    205289.29     379208.6    584497.89      2423159 
   29800         7.45    6714.2947    4739117.1       230657    377498.61    608155.61    2412686.5 
   29900        7.475    6678.9277    4804282.5    257006.56    375510.17    632516.73    2402214.1 
   30000          7.5    6646.7891    4870926.1    284383.29    373703.23    658086.52    2391741.7 
   30100        7.525    6651.2206      4939860    312039.09    373952.38    685991.48    2381269.2 
   30200         7.55    6741.9528    5010801.7    338978.83    379053.64    718032.47    2370796.8 
   30300        7.575    6859.4261    5089215.1    369223.67    385658.35    754882.02    2360324.4 
   30400          7.6    7028.7727    5172499.6    401562.12    395179.55    796741.66    2349851.9 
   30500        7.625    7260.3951    5254938.9    434185.55    408202.08    842387.63    2339379.5 
   30600         7.65    7504.6319    5348502.9    469121.05    421933.84    891054.89    2328907.1 
   30700        7.675    7796.1212    5439925.7    503751.85    438322.27    942074.12    2318434.6 
   30800          7.7    8086.4185    5538795.2    540361.25     454643.7    995004.94    2307962.2 
   30900        7.725    8371.7536      5635977    577491.87    470686.12      1048178    2297489.8 
   31000         7.75    8647.2066    5740873.9    615763.16    486172.95    1101936.1    2287017.3 
   31100        7.775    8904.8687    5844903.6    655081.91    500659.52    1155741.4    2276544.9 
   31200          7.8    9169.3838      5945166    694930.25    515531.38    1210461.6    2266072.5 
   31300        7.825    9402.8775    6048385.7    736432.51    528659.13    1265091.6      2255600 
   31400         7.85    9636.9885    6153731.9    778569.38    541821.58      1320391    2245127.6 
   31500        7.875    9863.4708    6262058.9    822123.98    554555.12    1376679.1    2234655.2 
   31600          7.9    10079.401    6380187.4    866158.28    566695.37    1432853.6    2224182.7 
   31700        7.925    10270.474    6504952.1    912208.03    577438.12    1489646.1    2213710.3 
   31800         7.95    10455.556      6628917    957965.21    587843.98    1545809.2    2203237.9 
   31900        7.975    10661.537    6757436.5    1002941.8    599424.91    1602366.7    2192765.4 
   32000            8    10825.953    6892064.8    1049193.7    608668.88    1657862.6      2182293 
   32100        8.025    11019.708      7026438    1093623.1     619562.4    1713185.5    2171820.6 
   32200         8.05    11203.965    7158648.7    1137433.3    629921.88    1767355.1    2161348.1 
   32300        8.075    11417.121      7290236    1179746.9    641906.19    1821653.1    2150875.7 
   32400          8.1    11688.799    7416783.9    1219341.6     657180.8    1876522.4    2140403.3 
   32500        8.125    12036.523    7548568.5    1255466.4    676730.93    1932197.3    2129930.8 
   32600         8.15    12398.907    7682588.7    1293249.5    697105.25    1990354.8    2119458.4 
   32700        8.175    12843.023    7821392.3    1328447.8    722074.85    2050522.7      2108986 
   32800          8.2    13297.333    7969109.2    1365287.5    747617.55    2112905.1    2098513.5 
   32900        8.225    13781.543    8119469.6    1401337.1    774841.36    2176178.4    2088041.1 
   33000         8.25    14234.848    8268771.7      1440243    800327.57    2240570.6    2077568.7 
   33100        8.275    14671.042    8425532.2    1479977.9    824851.79    2304829.7    2067096.2 
   33200          8.3    15019.026    8590866.9    1525965.8    844416.51    2370382.3    2056623.8 
   33300        8.325     15364.49    8761919.8    1572660.2     863839.6    2436499.8    2046151.3 
   33400         8.35    15663.632    8951407.2    1622230.5    880658.28    2502888.8    2035678.9 
   33500        8.375    15923.513    9157445.7    1674912.6    895269.64    2570182.3    2025206.5 
   33600          8.4    16105.367    9371991.4    1732413.5    905494.03    2637907.5      2014734 
   33700        8.425    16224.968    9564144.2    1793289.2    912218.36    2705507.6    2004261.6 
   33800         8.45    16279.887      9746353    1856550.4    915306.09    2771856.5    1993789.2 
   33900        8.475    16267.554    9940046.2    1921968.1    914612.66    2836580.8    1983316.7 
   34000          8.5    16228.239     10134391    1987379.6    912402.24    2899781.9    1972844.3 
   34100        8.525    16083.657     10327148    2056139.7     904273.4    2960413.1    1962371.9 
   34200         8.55    15880.028     10520395    2125760.6    892824.77    3018585.4    1951899.4 
   34300        8.575     15617.15     10704195      2196030    878044.94    3074074.9      1941427 
   34400          8.6    15289.749     10894177    2268562.2    859637.43    3128199.6    1930954.6 
   34500        8.625    14903.173     11084998    2343752.6    837902.93    3181655.5    1920482.1 
