LAMMPS (29 Sep 2021)
  using 1 OpenMP thread(s) per MPI task
Reading data file ...
  orthogonal box = (0.60786045 0.61968883 0.0000000) to (100.63922 100.62740 541.67200)
  3 by 2 by 16 MPI processor grid
  reading atoms ...
  437300 atoms
  reading velocities ...
  437300 velocities
  read_data CPU = 4.458 seconds
218650 atoms in group g_left
218650 atoms in group g_right

CITE-CITE-CITE-CITE-CITE-CITE-CITE-CITE-CITE-CITE-CITE-CITE-CITE

Your simulation uses code contributions which should be cited:
- @article{cjiang2012
The log file lists these citations in BibTeX format.

CITE-CITE-CITE-CITE-CITE-CITE-CITE-CITE-CITE-CITE-CITE-CITE-CITE

Neighbor list info ...
  update every 1 steps, delay 10 steps, check yes
  max neighbors/atom: 2000, page size: 100000
  master list distance cutoff = 8.28721
  ghost atom cutoff = 8.28721
  binsize = 4.143605, bins = 25 25 131
  3 neighbor lists, perpetual/occasional/extra = 3 0 0
  (1) pair eam/alloy, perpetual, skip from (3)
      attributes: half, newton on
      pair build: skip
      stencil: none
      bin: none
  (2) pair edip/multi, perpetual
      attributes: full, newton on
      pair build: full/bin/atomonly
      stencil: full/bin/3d
      bin: standard
  (3) neighbor class addition, perpetual, half/full from (2)
      attributes: half, newton on
      pair build: halffull/newton
      stencil: none
      bin: none
Setting up Verlet run ...
  Unit style    : metal
  Current step  : 0
  Time step     : 0.00025
Per MPI rank memory allocation (min/avg/max) = 10.07 | 12.34 | 14.51 Mbytes
Step Time Temp Press PotEng KinEng TotEng Volume 
       0            0    12178.609    132309.21   -2025958.9    688399.94     -1337559    5418836.5 
     100        0.025    12177.253    132802.18   -2025991.6    688323.28   -1337668.3    5406331.6 
     200         0.05      12177.1     132834.2   -2025991.4     688314.6   -1337676.8    5393826.7 
     300        0.075    12177.508    133120.49   -2025966.8    688337.69   -1337629.1    5381321.8 
     400          0.1    12177.115    133598.27   -2025949.6    688315.49   -1337634.1    5368816.9 
     500        0.125    12176.776    133734.88   -2025983.2    688296.29   -1337686.9      5356312 
     600         0.15     12176.36    134021.12   -2025977.1    688272.81   -1337704.3    5343807.2 
     700        0.175    12176.723    134085.78   -2025967.2    688293.29   -1337673.9    5331302.3 
     800          0.2    12177.155    134653.67     -2025980    688317.72   -1337662.3    5318797.4 
     900        0.225    12176.362    134748.18   -2025965.3    688272.89   -1337692.4    5306292.5 
    1000         0.25    12176.245    135221.09   -2025975.7    688266.31   -1337709.4    5293787.6 
    1100        0.275    12176.401    135795.49   -2025967.5    688275.12   -1337692.4    5281282.7 
    1200          0.3    12177.141    136068.97   -2026011.7    688316.96   -1337694.8    5268777.9 
    1300        0.325    12175.653    136031.26   -2025970.3    688232.85   -1337737.4      5256273 
    1400         0.35    12175.138    136693.58     -2025968    688203.74   -1337764.3    5243768.1 
    1500        0.375    12175.753    137061.48   -2025980.4     688238.5   -1337741.9    5231263.2 
    1600          0.4    12175.807    137274.71   -2025956.6    688241.55     -1337715    5218758.3 
    1700        0.425    12176.378    137672.79     -2025996    688273.82   -1337722.2    5206253.4 
    1800         0.45    12175.635    137913.93   -2025957.9    688231.79   -1337726.1    5193748.5 
    1900        0.475    12177.249    138227.85   -2026019.6    688323.07   -1337696.5    5181243.7 
    2000          0.5    12178.277    139132.92   -2026051.1    688381.17   -1337669.9    5168738.8 
    2100        0.525    12166.936    143659.43   -2025408.1    687740.08     -1337668    5156233.9 
    2200         0.55    12082.887    162128.69   -2020652.6    682989.18   -1337663.4      5143729 
    2300        0.575    11903.699     196682.2   -2010497.2    672860.56   -1337636.6    5131224.1 
    2400          0.6    11708.902    229830.34   -1999456.8    661849.55   -1337607.3    5118719.2 
    2500        0.625    11526.237    256240.56   -1989121.6    651524.38   -1337597.2    5106214.4 
    2600         0.65     11360.21    278559.21   -1979729.2    642139.66   -1337589.6    5093709.5 
    2700        0.675     11207.97    294384.07   -1971093.4     633534.2   -1337559.2    5081204.6 
    2800          0.7    11083.279    301528.46   -1964010.4    626486.04   -1337524.4    5068699.7 
    2900        0.725    10991.609    299728.08   -1958832.4    621304.35     -1337528    5056194.8 
    3000         0.75    10934.388    297573.85   -1955630.1    618069.92   -1337560.2    5043689.9 
    3100        0.775    10901.961     292417.7   -1953815.2    616236.95   -1337578.3    5031185.1 
    3200          0.8    10887.469    287846.81   -1952985.9    615417.78   -1337568.1    5018680.2 
    3300        0.825    10880.787     280450.6   -1952596.6    615040.07   -1337556.5    5006175.3 
    3400         0.85    10881.019    274629.97   -1952609.9     615053.2   -1337556.7    4993670.4 
    3500        0.875    10875.963    269809.69   -1952315.4    614767.42     -1337548    4981165.5 
    3600          0.9    10872.652    265830.47   -1952117.8    614580.27   -1337537.5    4968660.6 
    3700        0.925    10859.711    264428.54   -1951397.8    613848.79     -1337549    4956155.8 
    3800         0.95    10841.631    259271.77   -1950394.5    612826.79   -1337567.7    4943650.9 
    3900        0.975    10815.738    258843.02   -1948925.8    611363.18   -1337562.6      4931146 
    4000            1    10786.764    256679.36   -1947254.5    609725.44     -1337529    4918641.1 
    4100        1.025    10752.962    255737.63   -1945317.9    607814.76   -1337503.2    4906136.2 
    4200         1.05    10709.958    257365.28   -1942899.4    605383.93   -1337515.4    4893631.3 
    4300        1.075    10628.275    258003.33   -1938302.6    600766.77   -1337535.8    4881126.4 
    4400          1.1     10520.55    261635.36   -1932203.9    594677.58   -1337526.3    4868621.6 
    4500        1.125    10395.484    264287.37   -1925109.5    587608.21   -1337501.3    4856116.7 
    4600         1.15    10286.122    270744.56   -1918911.3    581426.44   -1337484.8    4843611.8 
    4700        1.175     10170.76    277002.09     -1912372     574905.6   -1337466.4    4831106.9 
    4800          1.2    10063.025     282862.9   -1906243.6    568815.81   -1337427.8      4818602 
    4900        1.225    9964.2004    286385.28   -1900622.7    563229.74   -1337392.9    4806097.1 
    5000         1.25     9868.668    294826.99   -1895221.5    557829.74   -1337391.7    4793592.3 
    5100        1.275    9780.1796    306083.46   -1890255.1     552827.9   -1337427.2    4781087.4 
    5200          1.3    9697.4439    314704.32   -1885611.7    548151.24   -1337460.4    4768582.5 
    5300        1.325    9619.3182     324125.8     -1881193    543735.16   -1337457.8    4756077.6 
    5400         1.35    9546.2422    332648.16   -1877055.2    539604.51   -1337450.7    4743572.7 
    5500        1.375    9482.0454    340711.08   -1873436.5    535975.76   -1337460.7    4731067.8 
    5600          1.4    9421.3261    351000.41   -1870019.5    532543.59   -1337475.9      4718563 
    5700        1.425    9363.6985     358575.6   -1866762.7    529286.17   -1337476.5    4706058.1 
    5800         1.45    9309.4965    369245.74     -1863686    526222.38   -1337463.6    4693553.2 
    5900        1.475    9252.8143    379670.59   -1860481.7     523018.4   -1337463.3    4681048.3 
    6000          1.5    9198.3863    388813.77   -1857403.1    519941.84   -1337461.3    4668543.4 
    6100        1.525    9137.4193    402926.67   -1853943.5    516495.66   -1337447.9    4656038.5 
    6200         1.55      9076.52    413297.61   -1850495.4    513053.31   -1337442.1    4643533.6 
    6300        1.575    9006.0697    424141.03   -1846536.3    509071.08   -1337465.3    4631028.8 
    6400          1.6    8934.3364    437038.54   -1842515.3    505016.33     -1337499    4618523.9 
    6500        1.625     8854.828     450836.2   -1838028.3    500522.09   -1337506.2      4606019 
    6600         1.65    8777.3604    462269.93   -1833632.8    496143.21   -1337489.6    4593514.1 
    6700        1.675     8688.223     475003.1   -1828585.3    491104.69   -1337480.7    4581009.2 
    6800          1.7    8604.0966    485862.74   -1823833.2    486349.42   -1337483.8    4568504.3 
    6900        1.725    8512.3697    495040.67   -1818626.9    481164.52   -1337462.4    4555999.5 
    7000         1.75    8424.8828    504406.35   -1813624.6     476219.3   -1337405.3    4543494.6 
    7100        1.775    8335.7646    513513.61   -1808545.6    471181.86   -1337363.8    4530989.7 
    7200          1.8    8250.3285    517215.21   -1803729.8    466352.56   -1337377.2    4518484.8 
    7300        1.825     8157.319    526457.42   -1798509.3    461095.16   -1337414.1    4505979.9 
    7400         1.85    8066.3742    532307.41   -1793385.7    455954.48   -1337431.2      4493475 
    7500        1.875    8009.6789    536097.49   -1790174.7    452749.76   -1337424.9    4480970.2 
    7600          1.9    8008.5606    537443.99   -1790106.3    452686.55   -1337419.8    4468465.3 
    7700        1.925    7929.6418    538491.53   -1785648.9    448225.64   -1337423.3    4455960.4 
    7800         1.95    7853.1693    534565.17   -1781313.2       443903   -1337410.2    4443455.5 
    7900        1.975    7844.8046    535200.48   -1780812.4    443430.18   -1337382.2    4430950.6 
    8000            2    7783.3094    539401.66   -1777330.2    439954.15     -1337376    4418445.7 
    8100        2.025    7702.7774    541853.03     -1772805    435402.05     -1337403    4405940.9 
    8200         2.05    7695.1918    541108.57   -1772414.2    434973.27     -1337441      4393436 
    8300        2.075    7598.7986    547280.79   -1766998.9    429524.61   -1337474.2    4380931.1 
    8400          2.1    7529.1203    548920.23     -1763087    425586.02     -1337501    4368426.2 
    8500        2.125    7523.1454    555796.06   -1762778.4    425248.29   -1337530.1    4355921.3 
    8600         2.15    7429.1677    555468.35   -1757489.6    419936.17   -1337553.4    4343416.4 
    8700        2.175    7386.0775    561402.47   -1755066.9    417500.48   -1337566.4    4330911.5 
    8800          2.2    7325.1723    568926.92   -1751634.1     414057.8   -1337576.3    4318406.7 
    8900        2.225    7253.5319    572469.68   -1747583.8     410008.3   -1337575.5    4305901.8 
    9000         2.25    7208.8604    578825.74   -1745049.4    407483.23   -1337566.2    4293396.9 
    9100        2.275    7121.7995    584455.41   -1740123.4    402562.08   -1337561.3      4280892 
    9200          2.3    7075.4026    592768.91   -1737515.1    399939.48   -1337575.7    4268387.1 
    9300        2.325    7028.5971    603044.56     -1734896    397293.79   -1337602.2    4255882.2 
    9400         2.35    6974.2897    605915.17   -1731842.5    394224.04   -1337618.4    4243377.4 
    9500        2.375    6919.8043       611348   -1728764.4    391144.24   -1337620.2    4230872.5 
    9600          2.4    6878.4481    622668.47   -1726433.4    388806.57   -1337626.8    4218367.6 
    9700        2.425    6824.5626     630274.1     -1723412    385760.67   -1337651.3    4205862.7 
    9800         2.45    6769.9282    641509.48   -1720345.1    382672.44   -1337672.7    4193357.8 
    9900        2.475    6715.2139    649100.82   -1717249.9     379579.7   -1337670.2    4180852.9 
   10000          2.5    6655.4863    660289.74   -1713847.8    376203.57   -1337644.2    4168348.1 
   10100        2.525    6587.4414    670078.65   -1709973.8    372357.31   -1337616.5    4155843.2 
   10200         2.55    6527.1968    681559.29   -1706554.2    368951.97   -1337602.3    4143338.3 
   10300        2.575    6447.9154    691245.16     -1702067    364470.56   -1337596.4    4130833.4 
   10400          2.6    6370.4837     698228.3   -1697695.7    360093.71     -1337602    4118328.5 
   10500        2.625    6293.7421    710379.56   -1693359.9    355755.86   -1337604.1    4105823.6 
   10600         2.65    6218.0202     719325.1   -1689063.4    351475.66   -1337587.8    4093318.7 
   10700        2.675    6129.5364    726632.55   -1684026.7    346474.08   -1337552.6    4080813.9 
   10800          2.7    6042.4999    730927.17   -1679091.8    341554.31   -1337537.5      4068309 
   10900        2.725     5950.021    742768.64   -1673880.8    336326.91   -1337553.8    4055804.1 
   11000         2.75    5857.6405     749321.9   -1668677.1    331105.07     -1337572    4043299.2 
   11100        2.775    5754.0832    755181.04   -1662829.4    325251.47   -1337577.9    4030794.3 
   11200          2.8    5652.4467    762342.25   -1657084.7    319506.43   -1337578.3    4018289.4 
   11300        2.825    5548.9237    768815.89   -1651242.3    313654.76   -1337587.6    4005784.6 
   11400         2.85    5444.0639    777124.67   -1645321.6    307727.52     -1337594    3993279.7 
   11500        2.875    5341.2329    783661.05   -1639501.9    301914.96   -1337586.9    3980774.8 
   11600          2.9    5240.1556    792698.35   -1633790.4    296201.54   -1337588.8    3968269.9 
   11700        2.925    5136.0923    803058.85     -1627937    290319.33   -1337617.7      3955765 
   11800         2.95    5026.0396    811439.89   -1621742.1    284098.56   -1337643.5    3943260.1 
   11900        2.975    4927.6738    819183.22   -1616178.4     278538.4     -1337640    3930755.3 
   12000            3    4827.7919    827006.89   -1610512.3    272892.54   -1337619.8    3918250.4 
   12100        3.025    4718.2837    835467.03   -1604320.9    266702.55   -1337618.3    3905745.5 
   12200         3.05    4608.1283    843365.78   -1598103.4    260475.99   -1337627.4    3893240.6 
   12300        3.075    4497.6785    850772.56   -1591856.4    254232.77   -1337623.7    3880735.7 
   12400          3.1     4392.965    858738.19   -1585925.2    248313.81   -1337611.4    3868230.8 
   12500        3.125    4292.3046       871705   -1580227.7    242623.94   -1337603.8      3855726 
   12600         3.15    4236.2727    882156.75   -1577069.3    239456.72   -1337612.5    3843221.1 
   12700        3.175    4166.9304       890280   -1573163.1    235537.12     -1337626    3830716.2 
   12800          3.2    4093.3005    898845.49   -1568998.8    231375.17   -1337623.6    3818211.3 
   12900        3.225     4067.332    908046.19   -1567518.7    229907.29   -1337611.4    3805706.4 
   13000         3.25    4017.7561    918583.25   -1564709.7       227105   -1337604.7    3793201.5 
   13100        3.275    3983.3369    923529.04   -1562769.4    225159.44   -1337609.9    3780696.6 
   13200          3.3    3958.2755    935189.73   -1561370.2    223742.84   -1337627.3    3768191.8 
   13300        3.325    3910.2524    942251.19   -1558679.1    221028.31   -1337650.8    3755686.9 
   13400         3.35    3906.5531    950114.31   -1558485.9    220819.21   -1337666.7      3743182 
   13500        3.375    3870.7781    961045.03     -1556476    218797.02     -1337679    3730677.1 
   13600          3.4    3871.0763    967200.79   -1556510.2    218813.87   -1337696.3    3718172.2 
   13700        3.425    3854.1685    975046.29   -1555584.6    217858.15   -1337726.4    3705667.3 
   13800         3.45    3858.7278    984663.22   -1555864.1    218115.87   -1337748.3    3693162.5 
   13900        3.475    3859.2811    992691.41     -1555881    218147.15   -1337733.9    3680657.6 
   14000          3.5    3845.9625    1001403.3   -1555098.9    217394.31   -1337704.6    3668152.7 
   14100        3.525    3809.3424    1008585.9   -1553025.3    215324.34     -1337701    3655647.8 
   14200         3.55     3747.179    1020008.3     -1549539    211810.54   -1337728.5    3643142.9 
   14300        3.575    3706.2464    1034183.4   -1547243.1    209496.81   -1337746.2      3630638 
   14400          3.6    3644.3909    1043819.3   -1543742.8     206000.4   -1337742.4    3618133.2 
   14500        3.625    3589.6585    1052478.4   -1540650.6    202906.64     -1337744    3605628.3 
   14600         3.65     3528.523    1062437.8   -1537214.9    199450.94   -1337763.9    3593123.4 
   14700        3.675     3459.845    1070936.9   -1533344.7    195568.89   -1337775.8    3580618.5 
   14800          3.7    3376.2868    1080853.2   -1528614.5    190845.73   -1337768.8    3568113.6 
   14900        3.725    3295.5307    1094731.4   -1524053.5    186280.97   -1337772.5    3555608.7 
   15000         3.75    3215.1363    1103188.4   -1519537.9    181736.65   -1337801.2    3543103.8 
   15100        3.775    3125.8842    1115259.6   -1514507.5    176691.64   -1337815.9      3530599 
   15200          3.8    3043.2404    1125172.3   -1509805.3    172020.18   -1337785.1    3518094.1 
   15300        3.825     2961.106    1137900.3   -1505123.5     167377.5     -1337746    3505589.2 
   15400         3.85    2866.7119    1147525.4   -1499776.7    162041.84   -1337734.8    3493084.3 
   15500        3.875     2775.961    1159367.5   -1494626.1    156912.12   -1337713.9    3480579.4 
   15600          3.9    2679.2941      1172143   -1489053.1    151447.99   -1337605.1    3468074.5 
   15700        3.925    2582.5594    1186138.6   -1483227.9    145980.03   -1337247.9    3455569.7 
   15800         3.95    2579.6727    1209861.1   -1467615.5    145816.86   -1321798.6    3443064.8 
   15900        3.975    2890.4111    1240095.8     -1451939    163381.44   -1288557.5    3430559.9 
   16000            4    3157.2076    1273528.9   -1436363.2    178462.21     -1257901      3418055 
   16100        4.025    3114.0884    1304687.1     -1414607    176024.88   -1238582.1    3405550.1 
   16200         4.05    3094.4035      1334762   -1395849.5    174912.19   -1220937.4    3393045.2 
   16300        4.075    3256.1351    1369635.1   -1375767.9    184054.12   -1191713.8    3380540.4 
   16400          4.1    3518.8924    1406220.7   -1356082.4    198906.56   -1157175.8    3368035.5 
   16500        4.125    3677.3922    1442330.2   -1336459.3    207865.81   -1128593.4    3355530.6 
   16600         4.15    3832.3505    1478945.5   -1316953.7    216624.89   -1100328.9    3343025.7 
   16700        4.175    4123.9191    1513247.2   -1300905.7     233105.9   -1067799.8    3330520.8 
   16800          4.2    4406.0323    1543494.9     -1285398    249052.44   -1036345.5    3318015.9 
   16900        4.225    4642.8003    1565689.5   -1269841.6    262435.83   -1007405.8    3305511.1 
   17000         4.25    4920.3276    1590521.3   -1253965.9    278123.15   -975842.77    3293006.2 
   17100        4.275    5144.3106    1623368.4   -1235004.4    290783.87   -944220.52    3280501.3 
   17200          4.3     5256.476    1660030.7   -1212728.6    297124.05   -915604.57    3267996.4 
   17300        4.325    5329.8086    1690280.3     -1190519     301269.2   -889249.78    3255491.5 
   17400         4.35     5349.226    1720864.1     -1167256    302366.78   -864889.22    3242986.6 
   17500        4.375    5316.9397    1755160.9   -1144230.5    300541.78    -843688.7    3230481.7 
   17600          4.4    5270.8809    1792958.8   -1122285.5     297938.3   -824347.21    3217976.9 
   17700        4.425    5292.9027    1821672.7   -1103110.4    299183.08   -803927.33      3205472 
   17800         4.45    5393.3165    1853313.9   -1086736.2    304859.01   -781877.15    3192967.1 
   17900        4.475     5541.411    1884613.6   -1071060.8     313230.1    -757830.7    3180462.2 
   18000          4.5    5763.9646    1915458.7   -1057066.1    325810.02    -731256.1    3167957.3 
   18100        4.525     6080.397    1950020.4   -1044099.5    343696.46   -700403.02    3155452.4 
   18200         4.55    6476.3703    1985459.8   -1029975.8    366078.98   -663896.77    3142947.6 
   18300        4.575    6925.0977    2019996.7   -1015752.8    391443.45   -624309.34    3130442.7 
   18400          4.6    7341.4289    2053157.7   -1002242.6    414976.71   -587265.87    3117937.8 
   18500        4.625    7714.5838    2088008.8   -987942.48    436069.41   -551873.06    3105432.9 
   18600         4.65    8121.8723    2119247.1    -973817.3    459091.53   -514725.78      3092928 
   18700        4.675     8562.533    2151618.8   -960437.44    484000.02   -476437.41    3080423.1 
   18800          4.7    9013.0038    2178746.1   -948341.92    509463.04   -438878.88    3067918.3 
   18900        4.725    9502.1705    2201712.7   -939727.85    537113.34   -402614.51    3055413.4 
   19000         4.75    9928.8987    2217730.3   -929562.94     561234.3   -368328.64    3042908.5 
   19100        4.775    10317.912    2241634.3   -919008.07    583223.38   -335784.69    3030403.6 
   19200          4.8    10627.765    2266295.2   -906320.62    600737.94   -305582.68    3017898.7 
   19300        4.825    10849.776    2299061.8   -891381.54    613287.17   -278094.37    3005393.8 
   19400         4.85    11003.359    2330937.6   -873970.22    621968.51   -252001.71    2992888.9 
   19500        4.875    11110.181    2375380.2   -854101.92    628006.66   -226095.26    2980384.1 
   19600          4.9    11204.123      2415292   -835003.38     633316.8   -201686.58    2967879.2 
   19700        4.925    11265.245    2452133.3   -814374.96    636771.73   -177603.23    2955374.3 
   19800         4.95    11323.773    2493585.8   -793295.32       640080   -153215.32    2942869.4 
   19900        4.975    11362.279    2538076.6   -771477.75    642256.62   -129221.13    2930364.5 
   20000            5    11377.797      2572757   -748249.68    643133.73   -105115.94    2917859.6 
   20100        5.025     11395.22    2614117.2   -723904.67    644118.59   -79786.077    2905354.8 
   20200         5.05    11410.985    2660779.9   -699268.39    645009.74    -54258.65    2892849.9 
   20300        5.075    11444.099    2706787.9   -675151.58    646881.48   -28270.105      2880345 
   20400          5.1    11489.507    2749695.8   -651703.03    649448.21   -2254.8202    2867840.1 
   20500        5.125    11550.661    2792301.2   -629087.07    652904.94    23817.863    2855335.2 
   20600         5.15    11642.936    2839189.6    -608519.5    658120.84    49601.332    2842830.3 
   20700        5.175    11763.633    2886921.3   -589084.75    664943.27    75858.517    2830325.5 
   20800          5.2    11893.743    2931045.6   -570486.82    672297.78    101810.96    2817820.6 
   20900        5.225    12027.417    2972547.6   -552779.58    679853.73    127074.15    2805315.7 
   21000         5.25    12189.018    3007031.3   -537815.84    688988.28    151172.44    2792810.8 
   21100        5.275    12349.224    3037278.1   -524785.12    698043.97    173258.85    2780305.9 
   21200          5.3     12535.75    3061258.7   -513985.74    708587.46    194601.72      2767801 
   21300        5.325    12699.241    3083111.5   -503711.72     717828.8    214117.08    2755296.2 
   21400         5.35    12854.409    3107908.6   -493722.62    726599.76    232877.13    2742791.3 
   21500        5.375    13026.364    3139576.5   -485513.93    736319.53     250805.6    2730286.4 
   21600          5.4    13175.135    3182032.7   -476282.37    744728.87     268446.5    2717781.5 
   21700        5.425    13323.862    3239540.4   -466918.26    753135.72    286217.46    2705276.6 
   21800         5.45    13477.285    3297146.4    -457325.9       761808     304482.1    2692771.7 
   21900        5.475    13636.399    3350801.8   -445651.21    770801.96    325150.75    2680266.8 
   22000          5.5    13834.344    3407580.1   -434038.86    781990.91    347952.05      2667762 
   22100        5.525    14024.118    3471678.7   -418415.23    792717.92    374302.69    2655257.1 
   22200         5.55    14267.758    3547805.3   -403204.15    806489.77    403285.62    2642752.2 
   22300        5.575    14499.226    3625944.9   -384734.14    819573.57    434839.43    2630247.3 
   22400          5.6    14684.756    3715840.1    -362854.9    830060.69    467205.79    2617742.4 
   22500        5.625     14836.29    3809666.9   -338560.19    838626.21    500066.03    2605237.5 
   22600         5.65    14925.318    3899756.7   -310213.01    843658.55    533445.55    2592732.7 
   22700        5.675    14990.207    4002151.2   -279039.29    847326.43    568287.14    2580227.8 
   22800          5.7    15005.874    4096486.4   -244034.41    848212.04    604177.63    2567722.9 
   22900        5.725     15010.25    4192963.5    -208496.9    848459.37    639962.47      2555218 
   23000         5.75    14991.929      4275673   -171918.37    847423.75    675505.38    2542713.1 
   23100        5.775    14965.409    4363303.5   -134641.41     845924.7    711283.29    2530208.2 
   23200          5.8    14883.448    4432567.1   -95292.996    841291.85    745998.85    2517703.4 
   23300        5.825    14820.341    4512875.2   -57877.296    837724.69     779847.4    2505198.5 
   23400         5.85    14734.757    4589926.6   -19727.429    832887.02    813159.59    2492693.6 
   23500        5.875    14626.337    4664795.1    18951.417    826758.53    845709.95    2480188.7 
   23600          5.9    14561.785    4755859.2    54839.571    823109.71    877949.28    2467683.8 
   23700        5.925    14521.502    4847839.8    89713.914    820832.72    910546.64    2455178.9 
   23800         5.95    14533.971    4931733.1    121672.59    821537.53    943210.12      2442674 
   23900        5.975     14554.18    5030444.7    153369.84    822679.88    976049.72    2430169.2 
   24000            6    14580.751    5113808.6     184889.1    824181.78    1009070.9    2417664.3 
   24100        6.025    14667.849    5214362.6    213249.93    829105.01    1042354.9    2405159.4 
   24200         6.05    14737.073    5295747.5    242600.82    833017.97    1075618.8    2392654.5 
   24300        6.075    14818.041    5373918.3    270753.51     837594.7    1108348.2    2380149.6 
   24400          6.1     14842.71    5453928.5    301782.72    838989.09    1140771.8    2367644.7 
   24500        6.125    14817.337    5524540.6    334646.68     837554.9    1172201.6    2355139.9 
   24600         6.15    14672.813      5609425    373270.69    829385.64    1202656.3      2342635 
   24700        6.175    14414.839    5700287.9    416826.92    814803.59    1231630.5    2330130.1 
   24800          6.2    14104.625    5793974.5    461894.48    797268.59    1259163.1    2317625.2 
   24900        6.225    13723.803    5889982.9    510351.58    775742.54    1286094.1    2305120.3 
   25000         6.25    13307.882    5997425.2    559091.98    752232.45    1311324.4    2292615.4 
   25100        6.275    12835.497    6103240.4    609752.01    725530.71    1335282.7    2280110.6 
   25200          6.3    12379.239    6218853.4    658601.83    699740.62    1358342.4    2267605.7 
   25300        6.325    11907.827    6332293.9    707735.15    673093.85      1380829    2255100.8 
   25400         6.35    11422.312    6444560.1    756985.44    645649.99    1402635.4    2242595.9 
   25500        6.375    11009.709    6559543.2    801889.63    622327.45    1424217.1      2230091 
   25600          6.4    10655.112    6667171.6    843902.62    602283.74    1446186.4    2217586.1 
   25700        6.425    10386.013    6754166.2     881213.8    587072.82    1468286.6    2205081.3 
   25800         6.45    10222.437      6863617     913584.5    577826.65    1491411.2    2192576.4 
   25900        6.475    10119.244    6962485.7    943761.11    571993.63    1515754.7    2180071.5 
   26000          6.5    10028.329    7091285.6    974737.07    566854.64    1541591.7    2167566.6 
   26100        6.525    9959.2909    7224315.2    1006203.7    562952.22    1569155.9    2155061.7 
   26200         6.55    9869.0458      7364259    1040903.6    557851.09    1598754.7    2142556.8 
   26300        6.575    9792.4783    7508243.8    1079719.5    553523.09    1633242.5    2130051.9 
   26400          6.6    9813.2131    7678272.9    1125608.9    554695.13      1680304    2117547.1 
   26500        6.625    10029.502      7871113    1185776.6    566920.94    1752697.6    2105042.2 
   26600         6.65    10495.489    8062808.8    1255295.1    593260.98      1848556    2092537.3 
   26700        6.675    10831.215      8274257    1330482.1    612238.05    1942720.1    2080032.4 
   26800          6.7    11196.129    8474825.9    1405223.6    632864.94    2038088.5    2067527.5 
   26900        6.725    11705.448    8657621.6    1481442.3    661654.35    2143096.7    2055022.6 
   27000         6.75    12112.768    8861240.3    1560917.9    684678.21    2245596.1    2042517.8 
   27100        6.775    12476.611    9077180.7    1638896.3    705244.56    2344140.9    2030012.9 
   27200          6.8    12836.472    9299318.5    1717158.7    725585.84    2442744.5      2017508 
   27300        6.825    13290.949      9513269    1789314.2    751275.29    2540589.5    2005003.1 
   27400         6.85    13834.431    9735161.9    1859237.9    781995.78    2641233.7    1992498.2 
   27500        6.875    14573.583    9964844.5    1926487.5    823776.62    2750264.1    1979993.3 
   27600          6.9    15380.045     10175243    1993949.5    869362.14    2863311.7    1967488.5 
   27700        6.925    16150.323     10379137    2062995.8    912902.39    2975898.2    1954983.6 
   27800         6.95    16825.167     10596912    2137250.3    951048.17    3088298.5    1942478.7 
   27900        6.975    17236.941     10821293    2223930.9    974323.84    3198254.7    1929973.8 
   28000            7    17477.038     11076411    2316230.2    987895.39    3304125.6    1917468.9 
   28100        7.025    17582.809     11318732    2412379.5     993874.1    3406253.6      1904964 
   28200         7.05    17619.976     11569775    2509437.7    995974.97    3505412.7    1892459.1 
   28300        7.075    17607.519     11846275      2608780    995270.87    3604050.9    1879954.3 
   28400          7.1    17653.041     12129170      2704766    997843.99      3702610    1867449.4 
   28500        7.125    17851.593     12391206    2792474.9    1009067.2    3801542.1    1854944.5 
   28600         7.15    18259.201     12642980      2867200    1032107.4    3899307.4    1842439.6 
   28700        7.175    18755.949     12928115    2936241.9    1060186.3    3996428.2    1829934.7 
   28800          7.2    19288.574     13287538    3003177.1    1090293.1    4093470.2    1817429.8 
   28900        7.225    19833.646     13690182    3071322.9    1121103.5    4192426.3      1804925 
   29000         7.25    20331.291     14108091    3149808.9      1149233    4299041.8    1792420.1 
   29100        7.275    20719.439     14560700    3246936.6    1171173.2    4418109.7    1779915.2 
   29200          7.3    21009.769     15011791      3358289    1187584.2    4545873.1    1767410.3 
