LAMMPS (29 Sep 2021)
  using 1 OpenMP thread(s) per MPI task
Reading data file ...
  orthogonal box = (-0.27404403 -0.27193217 0.0000000) to (101.49143 101.48932 619.76800)
  2 by 1 by 12 MPI processor grid
  reading atoms ...
  442392 atoms
  reading velocities ...
  442392 velocities
  read_data CPU = 4.929 seconds
221191 atoms in group g_left
221201 atoms in group g_right

CITE-CITE-CITE-CITE-CITE-CITE-CITE-CITE-CITE-CITE-CITE-CITE-CITE

Your simulation uses code contributions which should be cited:
- GPU package (short-range, long-range and three-body potentials):
The log file lists these citations in BibTeX format.

CITE-CITE-CITE-CITE-CITE-CITE-CITE-CITE-CITE-CITE-CITE-CITE-CITE


--------------------------------------------------------------------------
- Using acceleration for eam/alloy:
-  with 12 proc(s) per device.
-  Horizontal vector operations: ENABLED
-  Shared memory system: No
--------------------------------------------------------------------------
Device 0: Tesla V100-SXM2-32GB, 80 CUs, 28/32 GB, 1.5 GHZ (Mixed Precision)
Device 1: Tesla V100-SXM2-32GB, 80 CUs, 1.5 GHZ (Mixed Precision)
--------------------------------------------------------------------------

Initializing Device and compiling on process 0...Done.
Initializing Devices 0-1 on core 0...Done.
Initializing Devices 0-1 on core 1...Done.
Initializing Devices 0-1 on core 2...Done.
Initializing Devices 0-1 on core 3...Done.
Initializing Devices 0-1 on core 4...Done.
Initializing Devices 0-1 on core 5...Done.
Initializing Devices 0-1 on core 6...Done.
Initializing Devices 0-1 on core 7...Done.
Initializing Devices 0-1 on core 8...Done.
Initializing Devices 0-1 on core 9...Done.
Initializing Devices 0-1 on core 10...Done.
Initializing Devices 0-1 on core 11...Done.

Setting up Verlet run ...
  Unit style    : metal
  Current step  : 0
  Time step     : 0.00025
Per MPI rank memory allocation (min/avg/max) = 8.756 | 11.14 | 11.72 Mbytes
Step Time Temp Press PotEng KinEng TotEng Volume 
       0            0    15778.941    147323.66   -1714223.8    902295.44   -811928.38    6418182.2 
     100        0.025    15777.955    147655.86   -1714242.1    902239.05      -812003    6402648.6 
     200         0.05    15776.819    148021.98   -1714212.4     902174.1    -812038.3    6387114.9 
     300        0.075    15777.204    148381.09   -1714218.7    902196.14    -812022.6    6371581.2 
     400          0.1    15777.838    148753.62     -1714230    902232.37   -811997.61    6356047.5 
     500        0.125    15777.809    149124.77     -1714234    902230.73   -812003.24    6340513.9 
     600         0.15    15777.677    149479.01   -1714248.5    902223.17   -812025.31    6324980.2 
     700        0.175    15777.226    149844.76   -1714227.9    902197.39   -812030.54    6309446.5 
     800          0.2    15776.755    150211.24   -1714187.6    902170.45   -812017.11    6293912.8 
     900        0.225    15777.431    150567.29   -1714216.1    902209.11   -812007.02    6278379.2 
    1000         0.25    15777.434    150918.19   -1714231.9    902209.31   -812022.55    6262845.5 
    1100        0.275    15777.719    151279.54   -1714265.2    902225.61   -812039.57    6247311.8 
    1200          0.3    15777.074    151668.02   -1714227.5    902188.71   -812038.81    6231778.1 
    1300        0.325    15777.179    152045.18   -1714222.7    902194.72   -812028.02    6216244.5 
    1400         0.35    15777.121    152424.02     -1714212    902191.39   -812020.66    6200710.8 
    1500        0.375    15778.612    152760.19   -1714293.8    902276.67   -812017.15    6185177.1 
    1600          0.4    15787.078    153082.79   -1714776.3    902760.76   -812015.57    6169643.5 
    1700        0.425    15756.505    154167.75   -1713019.8    901012.49    -812007.3    6154109.8 
    1800         0.45    15712.362    156447.87   -1710485.6    898488.24   -811997.36    6138576.1 
    1900        0.475    15662.817    159559.44     -1707647    895655.11   -811991.94    6123042.4 
    2000          0.5    15620.959    162955.35   -1705248.9    893261.47    -811987.4    6107508.8 
    2100        0.525    15568.267    166116.98   -1702235.3     890248.4   -811986.85    6091975.1 
    2200         0.55    15527.233     169634.1   -1699881.8    887901.92   -811979.89    6076441.4 
    2300        0.575    15481.368    173129.69   -1697250.8    885279.19    -811971.6    6060907.7 
    2400          0.6    15428.626    176321.26   -1694243.5     882263.2   -811980.26    6045374.1 
    2500        0.625     15387.44    179584.96   -1691904.8    879908.07    -811996.7    6029840.4 
    2600         0.65    15334.754    182752.54   -1688906.9    876895.26   -812011.64    6014306.7 
    2700        0.675    15285.307    185791.58   -1686075.4    874067.74   -812007.67    5998773.1 
    2800          0.7    15246.783    189105.55   -1683855.3    871864.77   -811990.51    5983239.4 
    2900        0.725    15194.035    192059.74   -1680841.5    868848.47   -811993.01    5967705.7 
    3000         0.75    15149.689    194949.21     -1678329    866312.62   -812016.43      5952172 
    3100        0.775    15068.578    199412.83   -1673707.8    861674.43   -812033.33    5936638.4 
    3200          0.8     14963.36    205870.99   -1667682.8    855657.67   -812025.12    5921104.7 
    3300        0.825    14836.196    209693.96   -1660391.5       848386   -812005.54      5905571 
    3400         0.85    14748.128    215772.73   -1655341.9    843349.94   -811991.97    5890037.3 
    3500        0.875    14616.003    222491.07   -1647776.5    835794.56   -811981.93    5874503.7 
    3600          0.9    14512.972    227714.02   -1641870.1    829902.91   -811967.21      5858970 
    3700        0.925     14395.18    233700.47   -1635122.1    823167.16   -811954.98    5843436.3 
    3800         0.95    14288.151    240777.95   -1629010.7    817046.84   -811963.88    5827902.7 
    3900        0.975    14173.205    246858.28     -1622471    810473.82   -811997.14      5812369 
    4000            1     14042.39    252692.27   -1615029.4    802993.34   -812036.06    5796835.3 
    4100        1.025    13912.265    258951.41   -1607608.5    795552.33   -812056.15    5781301.6 
    4200         1.05     13782.07    264676.05   -1600169.7    788107.34   -812062.31      5765768 
    4300        1.075    13651.884    270316.71   -1592724.4    780662.84   -812061.53    5750234.3 
    4400          1.1    13523.119    276469.67   -1585360.7    773299.63   -812061.06    5734700.6 
    4500        1.125    13390.171     282843.4   -1577759.7     765697.2   -812062.51    5719166.9 
    4600         1.15    13256.416       289838   -1570106.8     758048.6   -812058.23    5703633.3 
    4700        1.175    13118.681    297432.81   -1562225.7     750172.4   -812053.32    5688099.6 
    4800          1.2    12979.117    305316.08   -1554246.3    742191.68   -812054.67    5672565.9 
    4900        1.225      12836.6    313406.38   -1546100.9    734042.03   -812058.82    5657032.3 
    5000         1.25    12691.692    321798.45   -1537825.6    725755.67   -812069.96    5641498.6 
    5100        1.275    12545.716    330433.64   -1529506.7    717408.24   -812098.42    5625964.9 
    5200          1.3    12395.721    339320.07   -1520965.3    708831.01   -812134.33    5610431.2 
    5300        1.325        12246    348707.46   -1512408.3    700269.44   -812138.81    5594897.6 
    5400         1.35    12095.904    357947.91   -1503798.2    691686.42   -812111.77    5579363.9 
    5500        1.375    12000.127    364418.95   -1498289.1    686209.57   -812079.56    5563830.2 
    5600          1.4    11907.096    368618.47   -1492969.2    680889.69   -812079.52    5548296.5 
    5700        1.425    11775.783    373297.34     -1485470     673380.8   -812089.21    5532762.9 
    5800         1.45    11690.594    378315.61   -1480584.4    668509.38   -812074.97    5517229.2 
    5900        1.475    11614.752    383926.62   -1476228.7    664172.46    -812056.2    5501695.5 
    6000          1.5     11518.11    388737.84   -1470701.3    658646.15    -812055.1    5486161.9 
    6100        1.525    11497.149    392282.14   -1469512.6    657447.48   -812065.08    5470628.2 
    6200         1.55    11398.426    395775.22   -1463864.5     651802.2   -812062.33    5455094.5 
    6300        1.575    11381.774    399150.76   -1462904.5    650849.94   -812054.56    5439560.8 
    6400          1.6    11320.745    402880.28   -1459414.3    647360.09    -812054.2    5424027.2 
    6500        1.625    11286.991    405595.71   -1457488.6    645429.91   -812058.67    5408493.5 
    6600         1.65    11273.994    407867.12   -1456747.2    644686.73   -812060.44    5392959.8 
    6700        1.675    11228.423    410326.41   -1454143.1    642080.81   -812062.24    5377426.1 
    6800          1.7    11225.493    413596.15   -1453980.2    641913.26    -812066.9    5361892.5 
    6900        1.725    11199.724    416769.15   -1452503.9    640439.71   -812064.18    5346358.8 
    7000         1.75    11203.522    420230.96   -1452701.9    640656.85   -812045.09    5330825.1 
    7100        1.775    11193.952     423788.8   -1452134.7    640109.63   -812025.08    5315291.5 
    7200          1.8    11191.716    428007.62   -1452007.9    639981.79   -812026.15    5299757.8 
    7300        1.825    11180.742    432795.33   -1451401.6    639354.22   -812047.39    5284224.1 
    7400         1.85    11169.157    437636.67   -1450763.3    638691.79   -812071.52    5268690.4 
    7500        1.875     11157.76    442374.03     -1450112    638040.04   -812071.91    5253156.8 
    7600          1.9    11139.158    446596.01   -1449029.9    636976.33    -812053.6    5237623.1 
    7700        1.925    11119.291    450391.17     -1447900    635840.23   -812059.75    5222089.4 
    7800         1.95    11100.844     454066.8   -1446872.4    634785.38   -812086.99    5206555.7 
    7900        1.975    11077.338    457839.64   -1445541.1    633441.26   -812099.86    5191022.1 
    8000            2    11053.335    461778.33     -1444150    632068.64   -812081.38    5175488.4 
    8100        2.025    11029.139    465206.97   -1442745.1    630685.02   -812060.08    5159954.7 
    8200         2.05    10988.415    468302.64   -1440423.5    628356.32   -812067.21    5144421.1 
    8300        2.075    10883.404     475202.9   -1434440.4    622351.38      -812089    5128887.4 
    8400          2.1    10774.694    480007.65   -1428232.5    616134.98   -812097.55    5113353.7 
    8500        2.125    10639.459    484081.85   -1420490.4    608401.78   -812088.64      5097820 
    8600         2.15      10513.3    491335.29   -1413282.6    601187.56   -812095.04    5082286.4 
    8700        2.175     10381.63    496847.78   -1405761.6     593658.2   -812103.35    5066752.7 
    8800          2.2    10235.066     501853.6   -1397387.1    585277.15   -812109.93      5051219 
    8900        2.225    10085.334    508688.12   -1388828.5    576714.92   -812113.57    5035685.3 
    9000         2.25    9928.0688    514956.98   -1379837.2    567721.97   -812115.23    5020151.7 
    9100        2.275    9763.4116    521139.12   -1370420.6    558306.29   -812114.31      5004618 
    9200          2.3    9593.7533    528395.42     -1360717    548604.63    -812112.4    4989084.3 
    9300        2.325    9419.7592    535871.68   -1350763.1    538655.04   -812108.03    4973550.7 
    9400         2.35    9238.2419    543905.86     -1340368    528275.23   -812092.76      4958017 
    9500        2.375    9062.1297    552880.08   -1330274.7    518204.52   -812070.15    4942483.3 
    9600          2.4    8883.9482    561980.58   -1320071.9    508015.47   -812056.41    4926949.6 
    9700        2.425    8708.2569    572040.55   -1310019.3    497968.83   -812050.45      4911416 
    9800         2.45    8536.2235    583015.43   -1300187.3    488131.35   -812055.99    4895882.3 
    9900        2.475    8368.7831    594561.27   -1290610.7    478556.52   -812054.14    4880348.6 
   10000          2.5     8200.069    606528.57   -1280944.8    468908.85   -812035.96    4864814.9 
   10100        2.525    8033.4206    619513.23   -1271408.3     459379.3   -812028.99    4849281.3 
   10200         2.55    7862.1539    633348.51     -1261627    449585.67   -812041.36    4833747.6 
   10300        2.575    7694.1936    647782.27   -1252035.4    439981.11   -812054.29    4818213.9 
   10400          2.6    7529.8531    661280.06   -1242627.9    430583.54   -812044.36    4802680.2 
   10500        2.625    7468.0168    669141.81   -1239061.8    427047.52   -812014.28    4787146.6 
   10600         2.65    7400.1115    673561.25   -1235146.6    423164.46    -811982.1    4771612.9 
   10700        2.675    7290.6977    678819.89   -1228876.8     416907.8   -811968.97    4756079.2 
   10800          2.7    7251.4015    684746.74   -1226628.2    414660.69   -811967.46    4740545.6 
   10900        2.725    7189.0661    692673.01   -1223058.2    411096.14   -811962.01    4725011.9 
   11000         2.75    7126.5701     699086.5   -1219480.2     407522.4   -811957.83    4709478.2 
   11100        2.775    7130.6656    704351.74   -1219720.3    407756.59   -811963.75    4693944.5 
   11200          2.8    7032.2639    710001.99   -1214105.9    402129.64   -811976.23    4678410.9 
   11300        2.825    7034.8143    715711.36   -1214258.6    402275.48   -811983.12    4662877.2 
   11400         2.85    6972.3893    722192.09     -1210678     398705.8   -811972.22    4647343.5 
   11500        2.875    6953.1256    725977.82   -1209565.4    397604.23   -811961.21    4631809.8 
   11600          2.9     6965.243    726531.71   -1210263.9    398297.15    -811966.8    4616276.2 
   11700        2.925    6951.0741    726383.19   -1209472.6    397486.92   -811985.71    4600742.5 
   11800         2.95    6967.7441    726324.32   -1210440.5    398440.17   -812000.35    4585208.8 
   11900        2.975    6979.1365    726763.22   -1211084.2    399091.63   -811992.53    4569675.2 
   12000            3    7006.3326     727684.2     -1212628     400646.8   -811981.16    4554141.5 
   12100        3.025    7034.8056    728571.06     -1214251    402274.98      -811976    4538607.8 
   12200         3.05    7063.3158    730302.19   -1215879.1    403905.29   -811973.84    4523074.1 
   12300        3.075    7091.7548    732732.75     -1217514    405531.54   -811982.47    4507540.5 
   12400          3.1    7122.4344    735673.66   -1219275.7     407285.9   -811989.76    4492006.8 
   12500        3.125     7140.571    738880.89     -1220312    408323.02   -811988.94    4476473.1 
   12600         3.15    7140.4242    743086.57   -1220301.8    408314.62   -811987.14    4460939.4 
   12700        3.175    7133.0262    747439.63   -1219873.4    407891.58   -811981.84    4445405.8 
   12800          3.2    7114.5418    751151.01   -1218808.2    406834.58   -811973.65    4429872.1 
   12900        3.225    7099.0556    754479.53   -1217921.3    405949.02   -811972.32    4414338.4 
   13000         3.25    7055.8919    758244.13   -1215453.1    403480.77   -811972.38    4398804.8 
   13100        3.275    6931.7594    767952.53   -1208352.1    396382.43   -811969.69    4383271.1 
   13200          3.3    6821.6043    776846.01   -1202046.6    390083.38    -811963.2    4367737.4 
   13300        3.325     6667.516    786195.48   -1193228.9    381272.07   -811956.83    4352203.7 
   13400         3.35    6521.6079    799313.45   -1184877.7    372928.53   -811949.17    4336670.1 
   13500        3.375    6374.2486    811095.25   -1176444.2       364502   -811942.22    4321136.4 
   13600          3.4    6194.1021    821552.43   -1166140.9    354200.59   -811940.32    4305602.7 
   13700        3.425    6024.5002     835195.6   -1156444.5    344502.16   -811942.36      4290069 
   13800         3.45    5847.9753    847809.88   -1146358.1    334407.84   -811950.23    4274535.4 
   13900        3.475    5667.0667    859001.82   -1136025.5    324062.85   -811962.65    4259001.7 
   14000          3.5    5482.1241    870570.31   -1125452.8    313487.18   -811965.64      4243468 
   14100        3.525    5296.0671    881965.05   -1114809.6    302847.78   -811961.81    4227934.4 
   14200         3.55    5104.1343     893156.3     -1103832    291872.39   -811959.59    4212400.7 
   14300        3.575    4920.6081    905719.14   -1093339.6    281377.72   -811961.85      4196867 
   14400          3.6    4737.4872    918926.51   -1082872.3    270906.21   -811966.08    4181333.3 
   14500        3.625    4559.1858    932605.23   -1072671.6    260710.31   -811961.27    4165799.7 
   14600         3.65    4382.8587    947458.31   -1062577.1    250627.31   -811949.83      4150266 
   14700        3.675     4208.087    963073.11     -1052581    240633.25   -811947.71    4134732.3 
   14800          3.7    4023.5026    979219.78   -1042035.2    230078.06   -811957.19    4119198.6 
   14900        3.725    3853.3197    995781.15   -1032314.6     220346.4   -811968.24      4103665 
   15000         3.75    3685.8352    1012429.3   -1022729.9    210769.05   -811960.82    4088131.3 
   15100        3.775    3519.6098    1028561.1   -1013191.5    201263.69   -811927.82    4072597.6 
   15200          3.8    3355.8125    1044770.7     -1003802    191897.19   -811904.82      4057064 
   15300        3.825    3213.8436    1058819.4   -995689.35    183778.91   -811910.44    4041530.3 
   15400         3.85    3156.0655    1067372.1   -992408.29    180474.95   -811933.34    4025996.6 
   15500        3.875    3057.9439    1074539.7   -986811.87    174864.01   -811947.86    4010462.9 
   15600          3.9      2964.75    1082983.7   -981475.21    169534.85   -811940.36    3994929.3 
   15700        3.925    2943.5684    1091439.3   -980258.82    168323.62    -811935.2    3979395.6 
   15800         3.95    2865.3117    1100500.7   -975793.63    163848.62      -811945    3963861.9 
   15900        3.975    2850.0475    1107133.5   -974925.93    162975.76   -811950.17    3948328.2 
   16000            4    2860.1432    1112052.5   -975503.61    163553.07   -811950.55    3932794.6 
   16100        4.025    2812.0517    1117521.9   -972762.94    160803.03   -811959.91    3917260.9 
   16200         4.05    2870.6606    1121725.8   -976130.23    164154.49   -811975.74    3901727.2 
   16300        4.075    2838.2415    1125922.2   -974274.38    162300.65   -811973.73    3886193.6 
   16400          4.1    2891.1582    1128474.9   -977239.72    165326.62   -811913.11    3870659.9 
   16500        4.125    2925.6349    1129701.4   -978951.92    167298.12    -811653.8    3855126.2 
   16600         4.15    2967.1466    1131438.2   -981311.28     169671.9   -811639.39    3839592.5 
   16700        4.175    3122.8841    1136239.8   -976752.87    178577.52   -798175.34    3824058.9 
   16800          4.2    3353.4856    1143065.2    -971611.4    191764.13   -779847.27    3808525.2 
   16900        4.225    3570.0787    1150937.8   -967307.13    204149.69   -763157.45    3792991.5 
   17000         4.25    3711.9965      1160632    -956385.6    212265.05   -744120.55    3777457.8 
   17100        4.275    3836.8453    1173888.4   -947621.61    219404.34   -728217.27    3761924.2 
   17200          4.3    3905.6626    1186899.3   -935671.55    223339.56      -712332    3746390.5 
   17300        4.325    4067.0545    1204759.3   -922651.85    232568.51   -690083.33    3730856.8 
   17400         4.35     4174.128    1225417.2   -908319.07    238691.35   -669627.72    3715323.2 
   17500        4.375    4164.1356    1253161.6   -889395.78    238119.95   -651275.83    3699789.5 
   17600          4.4    4138.5843      1288078   -866506.31    236658.84   -629847.48    3684255.8 
   17700        4.425    4105.4273      1322264   -841660.24     234762.8   -606897.43    3668722.1 
   17800         4.45    4033.6639    1357759.4   -814937.84    230659.12   -584278.72    3653188.5 
   17900        4.475    4017.1939    1396930.1   -785079.39    229717.31   -555362.08    3637654.8 
   18000          4.5    4128.9085    1441488.5   -751056.02    236105.54   -514950.48    3622121.1 
   18100        4.525    4295.5293    1490557.1   -715505.61    245633.51   -469872.11    3606587.4 
   18200         4.55    4438.4531    1541220.8   -679904.49    253806.39    -426098.1    3591053.8 
   18300        4.575    4595.7046      1594208   -643988.96    262798.59   -381190.37    3575520.1 
   18400          4.6    4771.9682    1649274.9   -608008.97    272877.96   -335131.01    3559986.4 
   18500        4.625    5003.1971    1703952.9   -572703.46    286100.44   -286603.02    3544452.8 
   18600         4.65    5326.3129    1759236.8   -539007.31    304577.35   -234429.96    3528919.1 
   18700        4.675    5756.4236    1814429.4   -507632.37    329172.59   -178459.78    3513385.4 
   18800          4.7    6252.4761    1863453.4   -480470.77    357538.62   -122932.15    3497851.7 
   18900        4.725    6814.3562    1904829.1   -457605.02    389668.91    -67936.11    3482318.1 
   19000         4.75    7408.4677    1941746.8   -437229.42     423642.3   -13587.124    3466784.4 
   19100        4.775    8112.5066    1976040.9   -423013.87    463901.72    40887.851    3451250.7 
   19200          4.8    8841.8822    2007739.9   -410889.37    505609.99    94720.621      3435717 
   19300        4.825    9634.4639    2035483.8    -403262.4    550932.61     147670.2    3420183.4 
   19400         4.85    10455.694    2059382.3   -397573.54    597893.46    200319.92    3404649.7 
   19500        4.875    11276.079    2083050.6   -392243.41    644805.93    252562.53      3389116 
   19600          4.9    12032.612    2108966.3   -384945.78    688067.18    303121.39    3373582.4 
   19700        4.925    12723.869    2138138.9   -376288.74     727595.7    351306.97    3358048.7 
   19800         4.95    13328.086    2168250.7   -365693.62    762146.96    396453.34      3342515 
   19900        4.975    13869.636    2198868.9   -354916.77    793114.67     438197.9    3326981.3 
   20000            5    14313.731    2231853.1    -342171.2    818509.57    476338.37    3311447.7 
   20100        5.025    14659.012    2271155.4    -327003.1    838253.96    511250.86      3295914 
   20200         5.05    14880.026    2314589.5   -307704.43    850892.32    543187.89    3280380.3 
   20300        5.075    14987.789    2357177.8   -284024.36    857054.58    573030.22    3264846.6 
   20400          5.1     15015.24      2401267   -257571.05    858624.36    601053.31      3249313 
   20500        5.125    14937.694    2447291.8    -226375.6    854189.97    627814.37    3233779.3 
   20600         5.15    14774.572    2495794.9   -191796.14    844862.09    653065.94    3218245.6 
   20700        5.175    14524.264    2545870.1   -154013.17    830548.62    676535.44    3202711.9 
   20800          5.2    14219.644    2596611.2   -115355.32    813129.35    697774.03    3187178.3 
   20900        5.225    13895.155    2646831.5   -77200.384    794573.96    717373.57    3171644.6 
   21000         5.25    13547.468    2696684.6   -39145.668    774691.99    735546.33    3156110.9 
   21100        5.275    13231.532    2746251.4   -3388.4381    756625.62    753237.18    3140577.3 
   21200          5.3    12958.224    2793391.3    29467.609    740996.93    770464.54    3125043.6 
   21300        5.325    12835.652    2830726.1    53613.131    733987.85    787600.98    3109509.9 
   21400         5.35    12788.642    2857308.6    73671.018    731299.63    804970.65    3093976.2 
   21500        5.375     12790.74    2880419.5    91120.791    731419.59    822540.38    3078442.6 
   21600          5.4    12882.493      2903322    104049.74    736666.38    840716.11    3062908.9 
   21700        5.425    13062.279    2924257.3    113231.84    746947.14    860178.98    3047375.2 
   21800         5.45    13291.731      2941357    120076.38    760068.06    880144.44    3031841.5 
   21900        5.475    13599.026    2957120.4    123199.04    777640.21    900839.26    3016307.9 
   22000          5.5    13956.138    2974843.2    124113.74    798061.19    922174.93    3000774.2 
   22100        5.525    14374.839    2995902.7    123566.28    822003.98    945570.26    2985240.5 
   22200         5.55    14851.563    3024647.1    123835.23    849264.73    973099.97    2969706.9 
   22300        5.575    15344.761    3062842.1    127414.34    877467.52    1004881.9    2954173.2 
   22400          5.6    15794.683    3108032.4     136683.8    903195.64    1039879.4    2938639.5 
   22500        5.625     16218.31    3154520.8    149490.77    927420.14    1076910.9    2923105.8 
   22600         5.65    16643.421    3206582.8    165693.47    951729.48      1117423    2907572.2 
   22700        5.675    17102.018    3265815.3    185214.88    977953.65    1163168.5    2892038.5 
   22800          5.7    17568.377    3332165.1    208913.14    1004621.7    1213534.9    2876504.8 
   22900        5.725    17819.064    3407959.5    248790.97    1018956.9    1267747.9    2860971.1 
   23000         5.75    18063.479    3493280.6    292238.76    1032933.4    1325172.2    2845437.5 
   23100        5.775    18449.561      3580630    330348.54    1055010.9    1385359.5    2829903.8 
   23200          5.8    18837.461    3667310.3    370929.44    1077192.4    1448121.9    2814370.1 
   23300        5.825    19338.263    3751514.7    406288.01    1105830.1    1512118.1    2798836.5 
   23400         5.85    19879.528    3834304.2    439741.39    1136781.5    1576522.9    2783302.8 
   23500        5.875    20494.813    3905047.9    467582.15    1171965.6    1639547.8    2767769.1 
   23600          5.9    21186.812    3963479.9    489813.72    1211536.6    1701350.3    2752235.4 
   23700        5.925     21891.46    4018379.4    509865.81    1251830.8    1761696.6    2736701.8 
   23800         5.95    22524.903    4075373.1    531177.46    1288053.4    1819230.8    2721168.1 
   23900        5.975    22787.255    4147496.7    570133.26    1303055.6    1873188.8    2705634.4 
   24000            6     22952.39      4226278    612449.46    1312498.6      1924948    2690100.7 
   24100        6.025    23051.546      4312338    656003.74    1318168.7    1974172.4    2674567.1 
   24200         6.05    23161.101    4410190.6    696787.87    1324433.4    2021221.2    2659033.4 
   24300        6.075     23117.76    4504399.6    743130.28      1321955    2065085.3    2643499.7 
   24400          6.1    22993.007    4599912.5    791714.89    1314821.2    2106536.1    2627966.1 
   24500        6.125    22850.758    4707531.3    838875.91    1306686.9    2145562.8    2612432.4 
   24600         6.15    22594.115    4817966.5    889876.77    1292011.1    2181887.9    2596898.7 
   24700        6.175    22247.516    4931871.7    943605.05    1272191.4    2215796.4      2581365 
   24800          6.2    21865.401    5043435.8    997195.26    1250340.7      2247536    2565831.4 
   24900        6.225    21492.154    5141153.6    1047955.1    1228997.1    2276952.2    2550297.7 
   25000         6.25    21133.148    5225644.3    1095875.3    1208467.9    2304343.3      2534764 
   25100        6.275      20810.2    5311246.6    1139847.6    1190000.6    2329848.3    2519230.3 
   25200          6.3    20486.983    5392062.7    1182276.8    1171517.9    2353794.7    2503696.7 
   25300        6.325    20153.804    5479010.3    1224059.6    1152465.6    2376525.1      2488163 
   25400         6.35    19493.038    5592186.3    1282862.6    1114680.6    2397543.2    2472629.3 
   25500        6.375    18582.752    5729966.2    1354604.6    1062627.3    2417231.9    2457095.7 
   25600          6.4    17557.791    5866672.3    1431930.2    1004016.4    2435946.6      2441562 
   25700        6.425    16507.803    6011417.5    1509551.5    943974.37    2453525.8    2426028.3 
   25800         6.45    15421.321    6167495.8    1588425.1    881845.51    2470270.6    2410494.6 
   25900        6.475    14312.667    6326176.2    1667817.3    818448.77      2486266      2394961 
   26000          6.5    13254.488    6475458.5    1743857.4    757938.33    2501795.7    2379427.3 
   26100        6.525    12336.602    6610555.6      1811407    705450.38    2516857.4    2363893.6 
   26200         6.55    11578.861    6720718.8    1869788.6    662120.06    2531908.6    2348359.9 
   26300        6.575    10992.656    6821770.2    1918691.7    628598.84    2547290.6    2332826.3 
   26400          6.6    10639.743    6911212.1    1954930.8       608418    2563348.8    2317292.6 
   26500        6.625     10450.73    6990599.5    1983007.6    597609.58    2580617.2    2301758.9 
   26600         6.65    10243.164    7082019.2    2014044.3    585740.21    2599784.5    2286225.3 
   26700        6.675    10043.365    7188438.4    2047938.6    574314.99    2622253.6    2270691.6 
   26800          6.7    9924.2366    7301422.6    2081691.9    567502.83    2649194.7    2255157.9 
   26900        6.725    9859.4803    7423180.3    2117910.6    563799.84    2681710.4    2239624.2 
   27000         6.75    9852.0697    7559461.5    2155924.6    563376.07    2719300.7    2224090.6 
   27100        6.775    9800.6106    7700511.7    2198861.9    560433.46    2759295.3    2208556.9 
   27200          6.8      9679.56    7852656.5    2246311.8    553511.36    2799823.1    2193023.2 
   27300        6.825    9444.9254      8016116    2302464.6    540094.12    2842558.7    2177489.5 
   27400         6.85    9269.8223    8169677.8    2360560.5    530081.11    2890641.6    2161955.9 
   27500        6.875    9225.6125    8334565.6    2429300.9    527553.04    2956853.9    2146422.2 
   27600          6.9    9538.2327    8560448.8    2524744.4    545429.77    3070174.2    2130888.5 
   27700        6.925    10180.836    8822537.4    2628189.8     582176.1    3210365.9    2115354.9 
   27800         6.95    10478.982    9104952.1    2748802.2    599225.11    3348027.3    2099821.2 
   27900        6.975    11225.797    9411800.1    2876255.1    641930.62    3518185.7    2084287.5 
   28000            7    12341.792    9729081.1    2994694.6    705747.15    3700441.8    2068753.8 
   28100        7.025    13815.793     10038515    3096401.8    790035.74    3886437.5    2053220.2 
   28200         7.05    15651.817     10323824    3180252.4    895026.04    4075278.5    2037686.5 
   28300        7.075    17695.801     10587769      3245918    1011908.3    4257826.3    2022152.8 
   28400          7.1    19639.202     10846388    3309096.1    1123038.8    4432134.9    2006619.1 
   28500        7.125    21085.375     11135661    3392814.7    1205736.1    4598550.8    1991085.5 
   28600         7.15    21413.486     11478329    3526042.1    1224498.6    4750540.7    1975551.8 
   28700        7.175    20972.845     11849289    3691066.7    1199301.2    4890367.9    1960018.1 
   28800          7.2    19954.037     12235359    3875738.5    1141042.2    5016780.7    1944484.5 
   28900        7.225    18753.473     12615346    4056320.5    1072389.7    5128710.2    1928950.8 
   29000         7.25    17864.686     12947868    4211428.3    1021565.7    5232994.1    1913417.1 
   29100        7.275     17624.19     13249532    4324427.6    1007813.3    5332240.8    1897883.4 
   29200          7.3    18047.692     13514429      4401068    1032030.7    5433098.7    1882349.8 
   29300        7.325    18963.704     13790450    4462745.4    1084411.4    5547156.8    1866816.1 
   29400         7.35    20267.059     14125626      4540593    1158941.9    5699534.8    1851282.4 
   29500        7.375    21726.541     14512445    4643473.2    1242400.2    5885873.4    1835748.7 
   29600          7.4    22983.252     14922837    4768304.4    1314263.3    6082567.7    1820215.1 
   29700        7.425     24515.84     15337021    4897122.5    1401902.2    6299024.7    1804681.4 
   29800         7.45    26592.314     15750974      5007181    1520642.2    6527823.2    1789147.7 
   29900        7.475    29153.634     16125344    5087306.4    1667107.6      6754414    1773614.1 
   30000          7.5    31286.309     16534184    5188426.8    1789061.5    6977488.3    1758080.4 
   30100        7.525     32130.59     16983677    5350841.2    1837340.4    7188181.6    1742546.7 
   30200         7.55    32142.671     17506667    5544725.6    1838031.2    7382756.8      1727013 
   30300        7.575    31337.499     17969861    5767302.7    1791988.6    7559291.4    1711479.4 
   30400          7.6    30192.962     18496788    5990451.1      1726540    7716991.1    1695945.7 
   30500        7.625    29464.323     18984873    6174731.1    1684873.8      7859605      1680412 
   30600         7.65    29460.411     19415067    6305117.1    1684650.2    7989767.3    1664878.3 
   30700        7.675    29290.798     19865709    6438459.4    1674951.1    8113410.5    1649344.7 
   30800          7.7    27630.142     20344543    6652796.6    1579988.9    8232785.5      1633811 
   30900        7.725    25032.322     20851964    6921885.3    1431436.4    8353321.7    1618277.3 
   31000         7.75    21991.148     21402899      7221225    1257531.3    8478756.4    1602743.6 
   31100        7.775    19628.656     21964984    7490743.8    1122435.7    8613179.6      1587210 
   31200          7.8    18828.695     22483088    7677753.3    1076691.1    8754444.5    1571676.3 
   31300        7.825    19482.592     22990321      7788192    1114083.3    8902275.3    1556142.6 
   31400         7.85    20256.163     23527750      7897608    1158318.8    9055926.8      1540609 
   31500        7.875    20032.427     24139389    8066540.5    1145524.8    9212065.2    1525075.3 
   31600          7.9    18501.069     24777473    8307647.3    1057956.4    9365603.6    1509541.6 
   31700        7.925    16683.042     25454047      8567213    953995.12    9521208.1    1494007.9 
   31800         7.95    16011.382     26084165    8786384.9    915587.23    9701972.2    1478474.3 
   31900        7.975    16839.719     26641135    9004590.5    962954.46      9967545    1462940.6 
   32000            8    18949.619     27459037      9235377      1083606     10318983    1447406.9 
   32100        8.025    20185.691     28354670    9527264.1      1154289     10681553    1431873.2 
   32200         8.05    21702.966     29352317    9863160.2    1241052.1     11104212    1416339.6 
   32300        8.075    23629.425     30234953     10176155    1351213.8     11527368    1400805.9 
   32400          8.1    26124.902     31001400     10460936      1493914     11954850    1385272.2 
   32500        8.125    27462.759     31923151     10791218    1570417.4     12361635    1369738.6 
   32600         8.15    27136.206     32968199     11170085    1551743.9     12721829    1354204.9 
   32700        8.175    25798.526     34033407     11567137    1475250.6     13042387    1338671.2 
   32800          8.2    25411.351     34870609     11885096    1453110.6     13338207    1323137.5 
   32900        8.225    27315.237     35646861     12092354    1561981.5     13654335    1307603.9 
   33000         8.25    30716.798     36671034     12281413    1756494.8     14037908    1292070.2 
   33100        8.275    33365.635     37866950     12570197    1907964.6     14478162    1276536.5 
   33200          8.3    35049.281     39147603     12964003    2004241.4     14968244    1261002.8 
   33300        8.325    37202.063     40277138     13363518    2127345.1     15490863    1245469.2 
   33400         8.35    39314.665     41456587     13749287    2248151.1     15997438    1229935.5 
   33500        8.375    40786.424     42809466     14129311    2332311.5     16461622    1214401.8 
   33600          8.4    40472.926     44090080     14546966    2314384.6     16861351    1198868.2 
   33700        8.425     38466.04     45245996     15003710    2199623.7     17203333    1183334.5 
   33800         8.45    34460.373     46451235     15528426    1970565.6     17498991    1167800.8 
   33900        8.475    29288.355     47762545     16089903    1674811.4     17764715    1152267.1 
   34000          8.5     24922.76     48975884     16597581    1425171.2     18022753    1136733.5 
   34100        8.525     23506.58     50135871     16963625    1344189.1     18307814    1121199.8 
   34200         8.55    24137.126     51476172     17272716      1380246     18652962    1105666.1 
   34300        8.575    24805.456     53105273     17653202    1418463.4     19071665    1090132.4 
   34400          8.6    24052.406     54728015     18189457    1375401.3     19564858    1074598.8 
   34500        8.625     24785.46     56470443     18787889      1417320     20205209    1059065.1 
   34600         8.65    28128.298     58469300     19361095    1608475.2     20969570    1043531.4 
   34700        8.675    32223.796     60590918     19897702    1842670.3     21740372    1027997.8 
   34800          8.7    34634.247     62673079     20519681    1980508.3     22500190    1012464.1 
   34900        8.725    33340.592     64850042     21294198    1906532.5     23200730    996930.41 
   35000         8.75    32208.401     67055131     22022169    1841789.9     23863958    981396.74 
   35100        8.775    34325.855     69291679     22572602    1962873.4     24535475    965863.06 
   35200          8.8    39588.944     71659254     23060641    2263835.4     25324477    950329.39 
   35300        8.825    45392.725     74206867     23613960      2595716     26209676    934795.72 
   35400         8.85     47751.17     77014682     24361776    2730580.2     27092356    919262.05 
   35500        8.875    47664.222     79868274     25194269    2725608.2     27919878    903728.37 
   35600          8.9    48227.919     82673684     25905526    2757842.4     28663369     888194.7 
   35700        8.925    44305.274     85655568     26806321    2533531.7     29339853    872661.03 
   35800         8.95    37599.084     88726129     27836751    2150048.2     29986800    857127.35 
   35900        8.975    35803.947     91725607     28572917    2047395.9     30620313    841593.68 
   36000            9    33518.656     94865811     29334430    1916714.9     31251145    826060.01 
   36100        9.025    32825.859     98196048     30113035    1877098.3     31990134    810526.34 
   36200         9.05    35990.607 1.0259423e+08     31129644    2058069.8     33187714    794992.66 
   36300        9.075    40831.985 1.0727474e+08     32205483    2334916.8     34540400    779458.99 
   36400          9.1    44847.327 1.1232253e+08     33308817    2564528.2     35873346    763925.32 
   36500        9.125    42225.736 1.1731596e+08     34604940    2414616.4     37019556    748391.64 
   36600         9.15    48057.452 1.2230735e+08     35479372    2748094.5     38227467    732857.97 
   36700        9.175    55601.121 1.2819745e+08     36598482    3179468.1     39777950     717324.3 
   36800          9.2    60356.669 1.3434881e+08     37792441    3451407.1     41243848    701790.63 
   36900        9.225    57495.267 1.4064349e+08     39224055      3287782     42511837    686256.95 
   37000         9.25    49403.861 1.4713315e+08     40745416    2825086.9     43570503    670723.28 
   37100        9.275     45205.69 1.5380042e+08     42142043    2585020.7     44727064    655189.61 
   37200          9.3    45774.953 1.6102669e+08     43415965    2617573.1     46033538    639655.94 
   37300        9.325    47425.981 1.6952876e+08     45003377    2711984.8     47715362    624122.26 
   37400         9.35    53904.431 1.7946639e+08     46798224    3082445.4     49880669    608588.59 
   37500        9.375     55718.49 1.8987992e+08     48739564    3186179.7     51925744    593054.92 
   37600          9.4    63659.531 2.0038523e+08     50315532    3640276.4     53955809    577521.24 
   37700        9.425    71440.629 2.124515e+08     52233762      4085227     56318989    561987.57 
   37800         9.45    69590.337 2.2500593e+08     54408272    3979420.8     58387692     546453.9 
   37900        9.475    59529.147 2.3800517e+08     56790222    3404086.5     60194308    530920.23 
   38000          9.5    59347.309 2.516831e+08     58802925    3393688.3     62196613    515386.55 
   38100        9.525    64256.376 2.6875963e+08     61385662      3674406     65060068    499852.88 
   38200         9.55    70526.631 2.8837394e+08     64230656    4032961.4     68263617    484319.21 
   38300        9.575    81375.871 3.0877041e+08     66795013    4653359.1     71448373    468785.53 
   38400          9.6    85539.226 3.3186482e+08     69925114    4891434.5     74816548    453251.86 
   38500        9.625    76405.011 3.5613009e+08     73365041    4369107.9     77734149    437718.19 
   38600         9.65    77139.842 3.8281964e+08     76623242    4411128.1     81034370    422184.52 
   38700        9.675    88956.724 4.1591369e+08     80613970      5086859     85700829    406650.84 
   38800          9.7    101172.22 4.510721e+08     84469605    5785384.1     90254989    391117.17 
   38900        9.725    105096.96 4.9035135e+08     88955161    6009814.6     94964976     375583.5 
   39000         9.75    103346.61 5.3235472e+08     93522641    5909723.2     99432365    360049.82 
   39100        9.775    118694.21 5.8401245e+08     98724400    6787353.1 1.0551175e+08    344516.15 
   39200          9.8    134743.35 6.4115835e+08 1.0410723e+08    7705099.8 1.1181233e+08    328982.48 
   39300        9.825    138891.67 7.0437581e+08 1.1020817e+08    7942315.1 1.1815048e+08    313448.81 
   39400         9.85     152725.1 7.7873704e+08 1.1683843e+08    8733359.7 1.2557179e+08    297915.13 
   39500        9.875    170110.75 8.6547833e+08 1.2414803e+08    9727532.3 1.3387556e+08    282381.46 
   39600          9.9    177892.74 9.653009e+08 1.3235822e+08     10172534 1.4253075e+08    266847.79 
   39700        9.925    197138.53 1.0876714e+09 1.4161075e+08     11273076 1.5288382e+08    251314.11 
   39800         9.95     210440.2 1.2333445e+09 1.5199694e+08     12033712 1.6403065e+08    235780.44 
   39900        9.975    231421.65 1.412227e+09 1.6382374e+08     13233506 1.7705724e+08    220246.77 
   40000           10    249408.82 1.6318393e+09 1.7743678e+08     14262075 1.9169886e+08     204713.1 
   40100       10.025    276614.27 1.9101159e+09 1.9332084e+08     15817779 2.0913862e+08    189179.42 
   40200        10.05    300602.18 2.2645866e+09 2.1208909e+08     17189492 2.2927858e+08    173645.75 
   40300       10.075    329973.05 2.7295245e+09 2.3461404e+08     18869022 2.5348306e+08    158112.08 
ERROR: Lost atoms: original 442392 current 442390 (../thermo.cpp:439)
Last command: run 50000
