LAMMPS (24 Mar 2022)
OMP_NUM_THREADS environment is not set. Defaulting to 1 thread. (src/comm.cpp:98)
  using 1 OpenMP thread(s) per MPI task

# System init

units      metal
dimension  3
boundary   p p p
atom_style atomic
timestep   0.00025


# read data
read_data Al2O3_supercell.data
Reading data file ...
  orthogonal box = (0 0 0) to (100.90559 100.90559 26.232508)
  2 by 3 by 1 MPI processor grid
  reading atoms ...
  26460 atoms
  read_data CPU = 0.092 seconds

# pair potential

pair_style hybrid/overlay eam/alloy edip/multi
pair_coeff * * eam/alloy Mishin-Ni-Al-2009.eam.alloy Al NULL
pair_coeff * * edip/multi NiAlO.edip Al O

mass 2 15.999


# reporting
thermo_style custom step time temp pe epair etotal press vol lx ly lz spcpu cpuremain elapsed
thermo 100

dump   1 all atom 100 generic.lammpstrj

# Single point
min_style cg
minimize 1e-5 1e-5 10000 100000

CITE-CITE-CITE-CITE-CITE-CITE-CITE-CITE-CITE-CITE-CITE-CITE-CITE

Your simulation uses code contributions which should be cited:

- @article{cjiang2012
 author    = {Jian, Chao and Morgan, Dane, and Szlufarska, Izabella},
 title     = {Carbon tri-interstitial defect: A model for DII center},
 journal   = {Physical Review B},
 volume    = {86},
 pages     = {144118},
 year      = {2012},
}

@article{lpizzagalli2010,
 author    = {G. Lucas, M. Bertolus, and L. Pizzagalli},
 journal   = {J. Phys. : Condens. Matter 22},
 volume    = {22},
 pages     = {035802},
 year      = {2010},
}

CITE-CITE-CITE-CITE-CITE-CITE-CITE-CITE-CITE-CITE-CITE-CITE-CITE

WARNING: Using 'neigh_modify every 1 delay 0 check yes' setting during minimization (src/min.cpp:187)
Neighbor list info ...
  update every 1 steps, delay 0 steps, check yes
  max neighbors/atom: 2000, page size: 100000
  master list distance cutoff = 8.28721
  ghost atom cutoff = 8.28721
  binsize = 4.143605, bins = 25 25 7
  3 neighbor lists, perpetual/occasional/extra = 3 0 0
  (1) pair eam/alloy, perpetual, skip from (3)
      attributes: half, newton on
      pair build: skip
      stencil: none
      bin: none
  (2) pair edip/multi, perpetual
      attributes: full, newton on
      pair build: full/bin/atomonly
      stencil: full/bin/3d
      bin: standard
  (3) neighbor class addition, perpetual, half/full from (2)
      attributes: half, newton on
      pair build: halffull/newton
      stencil: none
      bin: none
Per MPI rank memory allocation (min/avg/max) = 9.681 | 9.681 | 9.681 Mbytes
   Step          Time           Temp          PotEng         E_pair         TotEng         Press          Volume           Lx             Ly             Lz           S/CPU         CPULeft       Elapsed  
         0   0              0              1032986.6      1032986.6      1032986.6      426653.26      267097.75      100.90559      100.90559      26.232508      0              0                      0 
        94   0.0235         0             -203667.52     -203667.52     -203667.52     -313.3468       267097.75      100.90559      100.90559      26.232508      13.672229      724.53445             94 
Loop time of 6.87527 on 6 procs for 94 steps with 26460 atoms

99.9% CPU use with 6 MPI tasks x 1 OpenMP threads

Minimization stats:
  Stopping criterion = energy tolerance
  Energy initial, next-to-last, final = 
      1032986.57276442  -203666.958306997   -203667.51611798
  Force two-norm initial, final = 9.096056e+09 150.70699
  Force max component initial, final = 1.7411329e+08 2.3101048
  Final line search alpha, max atom move = 0.023576318 0.054463765
  Iterations, force evaluations = 94 196

MPI task timing breakdown:
Section |  min time  |  avg time  |  max time  |%varavg| %total
---------------------------------------------------------------
Pair    | 6.571      | 6.6092     | 6.6431     |   0.9 | 96.13
Neigh   | 0.051773   | 0.052519   | 0.05325    |   0.2 |  0.76
Comm    | 0.14659    | 0.18035    | 0.21914    |   5.2 |  2.62
Output  | 0          | 0          | 0          |   0.0 |  0.00
Modify  | 0          | 0          | 0          |   0.0 |  0.00
Other   |            | 0.0332     |            |       |  0.48

Nlocal:           4410 ave        4410 max        4410 min
Histogram: 6 0 0 0 0 0 0 0 0 0
Nghost:          10045 ave       10045 max       10045 min
Histogram: 6 0 0 0 0 0 0 0 0 0
Neighs:              0 ave           0 max           0 min
Histogram: 6 0 0 0 0 0 0 0 0 0
FullNghs:       464814 ave      464842 max      464786 min
Histogram: 3 0 0 0 0 0 0 0 0 3

Total # of neighbors = 2788884
Ave neighs/atom = 105.4
Neighbor list builds = 2
Dangerous builds = 0

# Thermalisation

velocity all create 300 1 mom yes rot no

fix 1 all npt temp 300 300 $(100.0*dt) iso 1.0 1.0 $(1000*dt)
fix 1 all npt temp 300 300 0.025000000000000001388 iso 1.0 1.0 $(1000*dt)
fix 1 all npt temp 300 300 0.025000000000000001388 iso 1.0 1.0 0.25

run  100000
Per MPI rank memory allocation (min/avg/max) = 8.559 | 8.559 | 8.559 Mbytes
   Step          Time           Temp          PotEng         E_pair         TotEng         Press          Volume           Lx             Ly             Lz           S/CPU         CPULeft       Elapsed  
        94   0              300           -203667.52     -203667.52     -202641.49      3789.7162      267097.75      100.90559      100.90559      26.232508      0              0                      0 
       100   0.0015         275.9671      -203585.41     -203585.41     -202641.57      25545.692      267125         100.90902      100.90902      26.2334        30.153557      3316.1721              6 
       200   0.0265         220.63993     -203369.58     -203369.58     -202614.97     -20296.72       273393.64      101.69227      101.69227      26.437022      29.175595      3417.6042            106 
       300   0.0515         307.10629     -203592.69     -203592.69     -202542.36      1064.6093      274023.69      101.77033      101.77033      26.457315      29.666808      3389.7381            206 
       400   0.0765         290.899       -203529.01     -203529.01     -202534.11      6804.713       275239.67      101.92064      101.92064      26.496392      29.926936      3368.3365            306 
       500   0.1015         256.48724     -203364.19     -203364.19     -202486.98     -7447.1441      277708.84      102.22451      102.22451      26.575389      30.541893      3339.3273            406 
       600   0.1265         315.12548     -203487.29     -203487.29     -202409.53      2200.7841      277102.99      102.15012      102.15012      26.556049      30.387373      3323.7638            506 
       700   0.1515         397.47605     -203856.3      -203856.3      -202496.89     -1531.2095      275630.15      101.96882      101.96882      26.508916      26.026479      3402.6894            606 
       800   0.1765         394.38552     -204038.57     -204038.57     -202689.73     -1912.8621      275162.06      101.91106      101.91106      26.493901      27.200156      3434.8507            706 
       900   0.2015         373.35912     -204158.27     -204158.27     -202881.35      223.70822      275604.6       101.96567      101.96567      26.508097      27.518189      3452.89              806 
      1000   0.2265         314.924       -204104.11     -204104.11     -203027.04     -1542.175       276338.18      102.05605      102.05605      26.531595      27.407041      3467.7569            906 
      1100   0.2515         309.75035     -204167.92     -204167.92     -203108.54      818.64807      275753.39      101.98401      101.98401      26.512866      27.22163       3481.3882           1006 
      1200   0.2765         317.67039     -204276.64     -204276.64     -203190.18      1078.0733      275683.64      101.97541      101.97541      26.510631      27.747069      3485.6701           1106 
      1300   0.3015         324.00815     -204397.94     -204397.94     -203289.8       2438.3555      275122.69      101.9062       101.9062       26.492638      27.117618      3495.4971           1206 
      1400   0.3265         314.4039      -204469.03     -204469.03     -203393.74     -1306.9121      275904.13      102.00259      102.00259      26.517697      27.835248      3496.0699           1306 
      1500   0.3515         296.61953     -204480.94     -204480.94     -203466.48      1730.1255      276299.16      102.05125      102.05125      26.530346      28.073767      3493.9098           1406 
      1600   0.3765         300.24503     -204523.22     -204523.22     -203496.36      324.71503      276141.2       102.0318       102.0318       26.52529       27.808206      3493.7883           1506 
      1700   0.4015         300.1319      -204541.12     -204541.12     -203514.64     -1934.7653      276038.15      102.0191       102.0191       26.521989      26.903463      3500.6432           1606 
      1800   0.4265         301.30221     -204563.48     -204563.48     -203533         1744.2904      276078.57      102.02408      102.02408      26.523284      24.322521      3528.9839           1706 
      1900   0.4515         297.69311     -204575.04     -204575.04     -203556.9       135.40896      275825.4       101.99289      101.99289      26.515174      27.700989      3526.4673           1806 
      2000   0.4765         290.71139     -204554.66     -204554.66     -203560.4      -3593.0104      275698.14      101.9772       101.9772       26.511096      27.284003      3526.6755           1906 
      2100   0.5015         300.47292     -204550.65     -204550.65     -203523         2835.5656      275757.73      101.98455      101.98455      26.513006      27.236727      3526.8082           2006 
      2200   0.5265         304.68271     -204537.36     -204537.36     -203495.32     -2238.6747      276042.83      102.01968      102.01968      26.52214       27.73587       3523.5083           2106 
      2300   0.5515         308.71839     -204558.94     -204558.94     -203503.09      2284.2381      275700.65      101.97751      101.97751      26.511176      27.727367      3520.2297           2206 
      2400   0.5765         301.1446      -204582.12     -204582.12     -203552.18     -722.46875      275736.25      101.9819       101.9819       26.512317      27.358169      3518.9847           2306 
      2500   0.6015         296.55739     -204607.14     -204607.14     -203592.88      543.26871      275711.65      101.97887      101.97887      26.511529      27.296473      3517.8743           2406 
      2600   0.6265         295.0736      -204616.69     -204616.69     -203607.51      575.34008      275494.03      101.95203      101.95203      26.504552      27.671006      3514.6312           2506 
      2700   0.6515         298.59228     -204618.02     -204618.02     -203596.81      223.06611      275426.02      101.94364      101.94364      26.50237       27.694001      3511.2474           2606 
      2800   0.6765         303.6375      -204621.3      -204621.3      -203582.83      134.03869      275563.35      101.96058      101.96058      26.506774      28.271051      3505.1968           2706 
      2900   0.7015         302.47177     -204624.94     -204624.94     -203590.46     -1154.001       275748.3       101.98338      101.98338      26.512703      27.553716      3502.5151           2806 
      3000   0.7265         298.87973     -204630.89     -204630.89     -203608.69     -76.360498      275795.5       101.9892       101.9892       26.514216      27.040328      3502.0705           2906 
      3100   0.7515         299.26936     -204640.92     -204640.92     -203617.39      334.68996      275783.59      101.98773      101.98773      26.513834      27.742656      3498.3884           3006 
      3200   0.7765         300.89721     -204641.94     -204641.94     -203612.84      1183.506       275781.97      101.98753      101.98753      26.513782      27.802227      3494.4704           3106 
      3300   0.8015         301.25809     -204633.65     -204633.65     -203603.32     -1755.7162      275732.51      101.98144      101.98144      26.512197      27.996805      3489.8178           3206 
      3400   0.8265         302.57284     -204636.5      -204636.5      -203601.67      2333.4704      275632.44      101.9691       101.9691       26.508989      27.731241      3486.2309           3306 
      3500   0.8515         301.68134     -204644.84     -204644.84     -203613.06     -2472.0099      275779.61      101.98724      101.98724      26.513707      27.733872      3482.6332           3406 
      3600   0.8765         299.17477     -204651.55     -204651.55     -203628.35     -2444.6883      275621.51      101.96775      101.96775      26.508639      26.696331      3482.8919           3506 
      3700   0.9015         299.62094     -204664.17     -204664.17     -203639.44      465.51327      275566.92      101.96102      101.96102      26.506889      27.629017      3479.5483           3606 
      3800   0.9265         299.80728     -204673.15     -204673.15     -203647.78     -695.03159      275399.25      101.94033      101.94033      26.501512      27.32356       3477.2411           3706 
      3900   0.9515         299.21273     -204679.93     -204679.93     -203656.59      2925.2329      275237.34      101.92035      101.92035      26.496317      28.30017       3471.6708           3806 
      4000   0.9765         298.89537     -204677.12     -204677.12     -203654.87     -655.71057      275399.48      101.94036      101.94036      26.501519      27.412365      3469.0202           3906 
      4100   1.0015         302.17529     -204678.89     -204678.89     -203645.42      2608.7539      275290.41      101.9269       101.9269       26.49802       27.425011      3466.2795           4006 
      4200   1.0265         303.1228      -204677.94     -204677.94     -203641.24     -619.44389      275381.11      101.9381       101.9381       26.50093       27.523396      3463.1903           4106 
      4300   1.0515         298.50273     -204671.16     -204671.16     -203650.25     -1511.011       275615.99      101.96707      101.96707      26.508462      27.494561      3460.162            4206 
      4400   1.0765         300.44126     -204690.1      -204690.1      -203662.56      1319.0176      275531.72      101.95668      101.95668      26.50576       27.570088      3456.884            4306 
      4500   1.1015         300.49333     -204699.01     -204699.01     -203671.3       519.06083      275601.09      101.96523      101.96523      26.507984      27.701158      3453.2178           4406 
      4600   1.1265         298.82785     -204693.5      -204693.5      -203671.49      671.98471      275496.3       101.95231      101.95231      26.504624      27.844586      3449.16             4506 
      4700   1.1515         300.79445     -204691.5      -204691.5      -203662.75     -831.92159      275605.55      101.96578      101.96578      26.508128      27.553412      3445.9085           4606 
      4800   1.1765         302.63447     -204691.15     -204691.15     -203656.11      771.43632      275614.76      101.96692      101.96692      26.508423      27.64498       3442.3975           4706 
      4900   1.2015         302.67339     -204694.37     -204694.37     -203659.2      -2464.9508      275498.88      101.95263      101.95263      26.504707      28.3351        3437.1371           4806 
      5000   1.2265         299.32133     -204694.38     -204694.38     -203670.68      1421.4842      275450.43      101.94665      101.94665      26.503153      27.637126      3433.6748           4906 
      5100   1.2515         299.31059     -204702.22     -204702.22     -203678.55     -936.51968      275387.03      101.93883      101.93883      26.50112       27.508232      3430.528            5006 
      5200   1.2765         297.79417     -204698.76     -204698.76     -203680.28     -1528.7943      275352.73      101.93459      101.93459      26.50002       26.875421      3428.9529           5106 
      5300   1.3015         298.86247     -204693.56     -204693.56     -203671.42      374.31539      275366.41      101.93628      101.93628      26.500458      27.102778      3426.727            5206 
      5400   1.3265         300.12626     -204691.84     -204691.84     -203665.38     -2321.0808      275385.04      101.93858      101.93858      26.501056      27.813084      3422.7642           5306 
      5500   1.3515         301.38476     -204697.37     -204697.37     -203666.6       2731.6535      275370.44      101.93678      101.93678      26.500588      27.660773      3419.1615           5406 
      5600   1.3765         302.07414     -204707.37     -204707.37     -203674.24      1466.2751      275388.48      101.939        101.939        26.501166      27.681881      3415.511            5506 
      5700   1.4015         300.17477     -204713.43     -204713.43     -203686.8      -1613.0655      275425.78      101.94361      101.94361      26.502363      27.435721      3412.4076           5606 
      5800   1.4265         298.99066     -204722.36     -204722.36     -203699.79     -325.48348      275369.93      101.93672      101.93672      26.500571      27.622783      3408.8773           5706 
      5900   1.4515         296.47064     -204718.21     -204718.21     -203704.25      1204.6738      275385.31      101.93861      101.93861      26.501064      27.544535      3405.5108           5806 
      6000   1.4765         299.20184     -204716.65     -204716.65     -203693.36     -149.06959      275438.61      101.94519      101.94519      26.502774      28.284685      3400.6218           5906 
      6100   1.5015         300.94695     -204710.31     -204710.31     -203681.04     -3048.8315      275488.15      101.9513       101.9513       26.504363      27.640949      3397.0665           6006 
      6200   1.5265         302.15928     -204713.18     -204713.18     -203679.77      1647.5828      275493.59      101.95197      101.95197      26.504537      27.51877       3393.7561           6106 
      6300   1.5515         299.72125     -204715.89     -204715.89     -203690.82      1146.1164      275523.32      101.95564      101.95564      26.505491      27.736712      3390.0037           6206 
      6400   1.5765         300.36362     -204727.17     -204727.17     -203699.9       205.57795      275510.23      101.95403      101.95403      26.505071      28.342709      3385.1107           6306 
      6500   1.6015         298.50746     -204727.41     -204727.41     -203706.48     -957.43595      275311.33      101.92948      101.92948      26.498691      28.421434      3380.1175           6406 
      6600   1.6265         299.33283     -204734.1      -204734.1      -203710.35     -530.13528      275387.23      101.93885      101.93885      26.501126      27.974488      3375.9774           6506 
      6700   1.6515         300.32981     -204738.73     -204738.73     -203711.58      1521.4845      275275.76      101.92509      101.92509      26.49755       27.406599      3372.9017           6606 
      6800   1.6765         298.92756     -204735.4      -204735.4      -203713.03     -424.4007       275356.42      101.93505      101.93505      26.500138      24.939088      3374.8313           6706 
      6900   1.7015         300.76653     -204740.35     -204740.35     -203711.7       2930.8796      275363         101.93586      101.93586      26.500349      24.278273      3378.0808           6806 
      7000   1.7265         299.23884     -204731.78     -204731.78     -203708.35      1692.2191      275273.31      101.92479      101.92479      26.497471      26.845159      3375.8078           6906 
      7100   1.7515         302.51935     -204740.7      -204740.7      -203706.06      1662.0034      275362.91      101.93585      101.93585      26.500346      28.024161      3371.4132           7006 
      7200   1.7765         302.2617      -204745.28     -204745.28     -203711.52     -3327.9321      275350.52      101.93432      101.93432      26.499948      28.151447      3366.831            7106 
      7300   1.8015         300.45608     -204748.39     -204748.39     -203720.8      -1838.0244      275337.87      101.93276      101.93276      26.499543      27.893583      3362.7002           7206 
      7400   1.8265         298.65454     -204745.8      -204745.8      -203724.37      179.16163      275451.56      101.94679      101.94679      26.503189      28.098956      3358.2519           7306 
      7500   1.8515         298.4788      -204742.19     -204742.19     -203721.36     -1142.749       275472.8       101.94941      101.94941      26.503871      26.767492      3356.0409           7406 
      7600   1.8765         297.8294      -204736.16     -204736.16     -203717.55      1289.9211      275390.97      101.93931      101.93931      26.501246      28.195895      3351.4571           7506 
      7700   1.9015         300.4293      -204745.33     -204745.33     -203717.84     -2595.5199      275310.6       101.92939      101.92939      26.498668      27.429948      3348.1035           7606 
      7800   1.9265         299.01688     -204748.82     -204748.82     -203726.16     -220.88768      275407.76      101.94138      101.94138      26.501785      28.316763      3343.375            7706 
      7900   1.9515         300.37843     -204755.56     -204755.56     -203728.24     -2558.1238      275291.43      101.92703      101.92703      26.498053      27.538996      3339.855            7806 
      8000   1.9765         300.41314     -204755.8      -204755.8      -203728.36      1134.4049      275186.39      101.91406      101.91406      26.494682      27.271035      3336.7479           7906 
      8100   2.0015         298.44307     -204748.92     -204748.92     -203728.22     -1382.1749      275200.63      101.91582      101.91582      26.495139      28.120348      3332.3542           8006 
      8200   2.0265         302.40345     -204761.48     -204761.48     -203727.23      2176.6075      275234.61      101.92002      101.92002      26.49623       28.193943      3327.876            8106 
      8300   2.0515         301.60388     -204765.37     -204765.37     -203733.86     -732.06783      275301.27      101.92824      101.92824      26.498368      28.172956      3323.45             8206 
      8400   2.0765         299.34577     -204763.54     -204763.54     -203739.74     -2399.2421      275282.64      101.92594      101.92594      26.497771      28.167341      3319.0529           8306 
      8500   2.1015         299.54908     -204768.35     -204768.35     -203743.86      2332.7808      275292.73      101.92719      101.92719      26.498094      28.179125      3314.6598           8406 
      8600   2.1265         299.69724     -204772.78     -204772.78     -203747.79      14.574937      275314.81      101.92991      101.92991      26.498803      28.075081      3310.428            8506 
      8700   2.1515         299.91065     -204774.47     -204774.47     -203748.75     -755.06775      275318.55      101.93038      101.93038      26.498923      28.205616      3306.0367           8606 
      8800   2.1765         298.16162     -204764.7      -204764.7      -203744.96     -564.65008      275357.47      101.93518      101.93518      26.500172      28.202657      3301.6687           8706 
      8900   2.2015         302.28257     -204771.59     -204771.59     -203737.76      3502.3557      275199.9       101.91573      101.91573      26.495116      28.303025      3297.1892           8806 
      9000   2.2265         302.10697     -204771.1      -204771.1      -203737.86     -830.40376      275197.61      101.91545      101.91545      26.495042      28.179186      3292.8898           8906 
      9100   2.2515         299.44361     -204768.93     -204768.93     -203744.8       2132.5203      275336.12      101.93254      101.93254      26.499487      28.193049      3288.5894           9006 
      9200   2.2765         301.20914     -204782.57     -204782.57     -203752.4      -1070.5227      275217.65      101.91792      101.91792      26.495685      28.28054       3284.196            9106 
      9300   2.3015         300.35279     -204786.09     -204786.09     -203758.86     -2629.0047      275318.71      101.9304       101.9304       26.498928      28.119778      3280.0206           9206 
      9400   2.3265         299.61709     -204784.17     -204784.17     -203759.45     -351.48202      275178.46      101.91308      101.91308      26.494428      28.254679      3275.6931           9306 
      9500   2.3515         300.74392     -204783.72     -204783.72     -203755.14      410.55746      275308.67      101.92916      101.92916      26.498606      28.203278      3271.4445           9406 
      9600   2.3765         298.34324     -204771.33     -204771.33     -203750.96     -554.30345      275298.99      101.92796      101.92796      26.498295      27.715847      3267.8042           9506 
      9700   2.4015         300.54758     -204772.41     -204772.41     -203744.51      177.27584      275308.1       101.92909      101.92909      26.498588      27.526919      3264.3977           9606 
      9800   2.4265         301.32806     -204775.37     -204775.37     -203744.8       3372.4051      275303.9       101.92857      101.92857      26.498453      28.209409      3260.1688           9706 
      9900   2.4515         298.82281     -204773.58     -204773.58     -203751.58     -1857.6021      275338.14      101.93279      101.93279      26.499551      23.303568      3262.818            9806 
     10000   2.4765         299.64688     -204785.48     -204785.48     -203760.66      174.0062       275252.34      101.9222       101.9222       26.496798      21.11508       3269.3721           9906 
     10100   2.5015         300.41973     -204797.99     -204797.99     -203770.52     -1449.6632      275324.36      101.93109      101.93109      26.499109      23.368003      3271.594           10006 
     10200   2.5265         300.63808     -204800.37     -204800.37     -203772.16      930.53583      275196.16      101.91527      101.91527      26.494996      26.664581      3268.9811          10106 
     10300   2.5515         300.48556     -204792.04     -204792.04     -203764.35     -1419.4697      275146.5       101.90914      101.90914      26.493402      21.856292      3273.6048          10206 
     10400   2.5765         301.03414     -204783.34     -204783.34     -203753.78      1433.4667      275243.77      101.92115      101.92115      26.496523      25.326752      3272.5937          10306 
     10500   2.6015         301.69159     -204782.85     -204782.85     -203751.04     -830.88476      275336.75      101.93262      101.93262      26.499507      23.991427      3273.4182          10406 
     10600   2.6265         301.12171     -204786.57     -204786.57     -203756.71      500.7892       275146.36      101.90912      101.90912      26.493398      26.26064       3271.0795          10506 
     10700   2.6515         301.75993     -204798.19     -204798.19     -203766.14      257.6136       275155.62      101.91026      101.91026      26.493694      27.851346      3266.88            10606 
     10800   2.6765         298.3887      -204795.76     -204795.76     -203775.25     -633.29772      275186.29      101.91405      101.91405      26.494679      27.979812      3262.5544          10706 
     10900   2.7015         297.93327     -204793.77     -204793.77     -203774.81      417.50845      275284.44      101.92617      101.92617      26.497829      28.151899      3258.0623          10806 
     11000   2.7265         300.29505     -204794.26     -204794.26     -203767.22     -1277.7292      275105.69      101.9041       101.9041       26.492092      28.289836      3253.446           10906 
     11100   2.7515         300.3918      -204787.33     -204787.33     -203759.96     -780.18721      275282.54      101.92593      101.92593      26.497768      28.024817      3249.1197          11006 
     11200   2.7765         302.48933     -204791.06     -204791.06     -203756.52     -1762.919       275314.03      101.92982      101.92982      26.498778      28.147753      3244.6823          11106 
     11300   2.8015         301.6135      -204795.78     -204795.78     -203764.23      1039.0597      275193.99      101.915        101.915        26.494926      28.086223      3240.3223          11206 
     11400   2.8265         299.31646     -204800.5      -204800.5      -203776.81      2115.2656      275136.69      101.90793      101.90793      26.493087      28.304916      3235.7606          11306 
     11500   2.8515         297.98735     -204802.05     -204802.05     -203782.91      977.71048      275201.7       101.91595      101.91595      26.495173      27.34569       3232.1796          11406 
     11600   2.8765         301.26487     -204806.99     -204806.99     -203776.64     -1743.6442      275301.76      101.9283       101.9283       26.498384      25.352719      3230.8082          11506 
     11700   2.9015         298.83787     -204792.89     -204792.89     -203770.84      106.37456      275242.91      101.92104      101.92104      26.496496      25.951243      3228.6997          11606 
     11800   2.9265         299.8024      -204789.22     -204789.22     -203763.87     -1187.2708      275310.49      101.92938      101.92938      26.498664      26.747377      3225.6962          11706 
     11900   2.9515         299.59947     -204787.42     -204787.42     -203762.76      2383.6166      275163.23      101.9112       101.9112       26.493939      25.711833      3223.8051          11806 
     12000   2.9765         300.9966      -204796.73     -204796.73     -203767.3      -912.1176       275262.96      101.92352      101.92352      26.497139      26.928438      3220.5803          11906 
     12100   3.0015         299.25815     -204803.74     -204803.74     -203780.25     -771.36375      275201.98      101.91599      101.91599      26.495183      26.286149      3218.0124          12006 
     12200   3.0265         299.35105     -204812.43     -204812.43     -203788.62     -1179.4285      275169.83      101.91202      101.91202      26.494151      27.000309      3214.6935          12106 
     12300   3.0515         297.42954     -204806.44     -204806.44     -203789.2      -1534.3288      275203.3       101.91615      101.91615      26.495225      25.957095      3212.4389          12206 
     12400   3.0765         299.4596      -204803.96     -204803.96     -203779.78      1175.5101      275283         101.92599      101.92599      26.497782      26.227647      3209.8752          12306 
     12500   3.1015         300.86447     -204798.76     -204798.76     -203769.78     -2464.5413      275251.76      101.92213      101.92213      26.49678       27.016338      3206.5054          12406 
     12600   3.1265         302.6882      -204804.48     -204804.48     -203769.26     -951.34778      275208.93      101.91685      101.91685      26.495405      26.843573      3203.297           12506 
     12700   3.1515         299.95536     -204804.36     -204804.36     -203778.48     -1490.3317      275378.38      101.93776      101.93776      26.500842      27.551529      3199.4168          12606 
     12800   3.1765         297.70205     -204808.82     -204808.82     -203790.65      64.819855      275108.99      101.90451      101.90451      26.492198      26.281397      3196.7456          12706 
     12900   3.2015         300.68601     -204824.52     -204824.52     -203796.15     -1204.3985      275214.66      101.91755      101.91755      26.495589      26.277861      3194.0602          12806 
     13000   3.2265         297.90903     -204816.27     -204816.27     -203797.39     -729.24875      275199.32      101.91566      101.91566      26.495097      25.840662      3191.792           12906 
     13100   3.2515         301.61988     -204818.75     -204818.75     -203787.18      3140.1422      275125.14      101.9065       101.9065       26.492716      26.836838      3188.5382          13006 
     13200   3.2765         300.21149     -204807.06     -204807.06     -203780.31     -4614.1713      275256.01      101.92266      101.92266      26.496916      22.524286      3190.0074          13106 
     13300   3.3015         300.70378     -204804.27     -204804.27     -203775.84     -781.36133      275336.81      101.93263      101.93263      26.499509      24.462742      3189.075           13206 
     13400   3.3265         301.14978     -204810.79     -204810.79     -203780.83      1853.6656      275120.79      101.90596      101.90596      26.492577      27.987519      3184.7408          13306 
     13500   3.3515         299.27046     -204815.64     -204815.64     -203792.11      1555.2458      275218.91      101.91808      101.91808      26.495726      27.389867      3180.9215          13406 
     13600   3.3765         301.00465     -204822.63     -204822.63     -203793.17      66.090096      275225.67      101.91891      101.91891      26.495943      27.263233      3177.2134          13506 
     13700   3.4015         300.96225     -204823.23     -204823.23     -203793.91      805.86689      275151.35      101.90974      101.90974      26.493558      27.92115       3172.957           13606 
     13800   3.4265         298.5189      -204810.65     -204810.65     -203789.68     -2900.8283      275180.89      101.91339      101.91339      26.494506      26.123558      3170.2622          13706 
     13900   3.4515         301.34315     -204810.96     -204810.96     -203780.34      3861.0351      275048.63      101.89706      101.89706      26.49026       26.92836       3166.8366          13806 
     14000   3.4765         301.08933     -204810.65     -204810.65     -203780.89      92.900679      275199.82      101.91572      101.91572      26.495113      26.750404      3163.5599          13906 
     14100   3.5015         297.67551     -204812.98     -204812.98     -203794.9      -338.35652      275197.53      101.91544      101.91544      26.49504       25.696597      3161.2179          14006 
     14200   3.5265         298.73394     -204817.4      -204817.4      -203795.7       555.77932      275155.59      101.91026      101.91026      26.493694      28.319502      3156.6591          14106 
     14300   3.5515         300.44966     -204818.3      -204818.3      -203790.73      2925.8111      275194.96      101.91512      101.91512      26.494957      28.336011      3152.1024          14206 
     14400   3.5765         301.36135     -204816.57     -204816.57     -203785.88     -480.83163      275171.62      101.91224      101.91224      26.494208      25.728612      3149.7024          14306 
     14500   3.6015         303.9983      -204819.22     -204819.22     -203779.52      1067.8271      275141.8       101.90856      101.90856      26.493251      25.209829      3147.7569          14406 
     14600   3.6265         302.73286     -204816.66     -204816.66     -203781.28     -3450.0254      275263.53      101.92359      101.92359      26.497158      18.988265      3153.4437          14506 
     14700   3.6515         300.00492     -204820.81     -204820.81     -203794.77      1106.9725      275297.3       101.92775      101.92775      26.498241      21.288338      3155.6538          14606 
     14800   3.6765         297.84206     -204820.06     -204820.06     -203801.41      1552.8436      275086.55      101.90174      101.90174      26.491478      21.200976      3157.8822          14706 
     14900   3.7015         300.26917     -204831.27     -204831.27     -203804.32      382.83436      275254.26      101.92244      101.92244      26.49686       26.737901      3154.3966          14806 
     15000   3.7265         298.22717     -204828.01     -204828.01     -203808.05     -241.04337      275289.09      101.92674      101.92674      26.497978      28.128264      3149.8521          14906 
     15100   3.7515         301.41879     -204826.19     -204826.19     -203795.31      164.16547      275098.86      101.90326      101.90326      26.491873      21.444324      3151.5972          15006 
     15200   3.7765         301.21153     -204818.64     -204818.64     -203788.47      1981.9497      275193.77      101.91498      101.91498      26.494919      25.118106      3149.4243          15106 
     15300   3.8015         302.39991     -204824.66     -204824.66     -203790.42     -112.52643      275139.5       101.90827      101.90827      26.493177      24.19333       3148.0763          15206 
     15400   3.8265         299.95344     -204827.49     -204827.49     -203801.62     -721.81113      275140.42      101.90839      101.90839      26.493207      24.529068      3146.3788          15306 
     15500   3.8515         300.3759      -204833.93     -204833.93     -203806.61      1323.9041      275239.16      101.92058      101.92058      26.496376      27.019533      3142.5871          15406 
     15600   3.8765         298.4671      -204825.91     -204825.91     -203805.13     -1649.5868      275230.14      101.91946      101.91946      26.496086      23.590494      3141.728           15506 
     15700   3.9015         298.06997     -204819.4      -204819.4      -203799.98      96.496328      275130.95      101.90722      101.90722      26.492903      24.727441      3139.7716          15606 
     15800   3.9265         300.38055     -204820.94     -204820.94     -203793.61      856.08462      275178.89      101.91314      101.91314      26.494441      24.98243       3137.5671          15706 
     15900   3.9515         300.12508     -204809.82     -204809.82     -203783.36      638.71069      275090.98      101.90228      101.90228      26.49162       26.857334      3133.8514          15806 
     16000   3.9765         300.60699     -204812.16     -204812.16     -203784.06      1465.4523      275213.67      101.91743      101.91743      26.495558      27.052889      3129.9932          15906 
     16100   4.0015         299.78154     -204821.96     -204821.96     -203796.67     -454.15759      275152.7       101.9099       101.9099       26.493601      27.538764      3125.7949          16006 
     16200   4.0265         300.63955     -204828.93     -204828.93     -203800.71      939.74581      275289.13      101.92674      101.92674      26.497979      27.772689      3121.4442          16106 
     16300   4.0515         298.00019     -204823.7      -204823.7      -203804.51     -3408.0009      275283.65      101.92607      101.92607      26.497803      26.4496        3118.0342          16206 
     16400   4.0765         298.86361     -204829.07     -204829.07     -203806.93     -721.42997      275125.63      101.90656      101.90656      26.492732      26.953785      3114.2565          16306 
     16500   4.1015         300.5923      -204837.14     -204837.14     -203809.09     -95.748223      275195.34      101.91517      101.91517      26.494969      27.471752      3110.1233          16406 
     16600   4.1265         298.12746     -204835.55     -204835.55     -203815.92     -5168.2555      275229.82      101.91942      101.91942      26.496076      27.101499      3106.2476          16506 
     16700   4.1515         298.19744     -204834.64     -204834.64     -203814.77      2687.8302      275008.96      101.89216      101.89216      26.488987      27.648654      3102.0075          16606 
     16800   4.1765         300.08869     -204829.5      -204829.5      -203803.17     -1837.1382      275128.12      101.90687      101.90687      26.492812      26.389839      3098.635           16706 
     16900   4.2015         300.92372     -204830.58     -204830.58     -203801.4       1088.9633      275176.42      101.91283      101.91283      26.494362      27.595701      3094.4378          16806 
     17000   4.2265         298.07102     -204825.4      -204825.4      -203805.97      1497.3418      275181.66      101.91348      101.91348      26.49453       27.589379      3090.2515          16906 
     17100   4.2515         298.97728     -204828.02     -204828.02     -203805.49     -4002.7963      275178.06      101.91304      101.91304      26.494415      27.800409      3085.9376          17006 
     17200   4.2765         301.36899     -204831.52     -204831.52     -203800.81      2923.5778      275100.18      101.90342      101.90342      26.491915      27.054684      3082.1125          17106 
     17300   4.3015         299.67733     -204829.3      -204829.3      -203804.38     -530.57468      275234.68      101.92002      101.92002      26.496232      26.481648      3078.6737          17206 
     17400   4.3265         298.98673     -204834.41     -204834.41     -203811.85      254.04365      275217.52      101.91791      101.91791      26.495681      27.543771      3074.5353          17306 
     17500   4.3515         298.79097     -204838.78     -204838.78     -203816.89     -677.04061      275276.37      101.92517      101.92517      26.49757       26.652646      3070.9787          17406 
     17600   4.3765         298.9145      -204840.55     -204840.55     -203818.24     -150.49148      275186.08      101.91403      101.91403      26.494672      26.787967      3067.3305          17506 
     17700   4.4015         300.14037     -204838.77     -204838.77     -203812.26      135.28054      275024.02      101.89402      101.89402      26.48947       27.650644      3063.1364          17606 
     17800   4.4265         300.93049     -204832.99     -204832.99     -203803.78      823.08858      275086.73      101.90176      101.90176      26.491483      27.691235      3058.9241          17706 
     17900   4.4515         302.125       -204836.22     -204836.22     -203802.93      2309.1057      275111.36      101.9048       101.9048       26.492274      27.95788       3054.5596          17806 
     18000   4.4765         300.34384     -204831.05     -204831.05     -203803.84     -2774.9904      275242         101.92093      101.92093      26.496467      28.06362       3050.1421          17906 
     18100   4.5015         300.27046     -204837.18     -204837.18     -203810.22     -100.34916      275147.58      101.90927      101.90927      26.493437      28.06014       3045.7361          18006 
     18200   4.5265         298.37706     -204840.03     -204840.03     -203819.55     -468.32076      275058.82      101.89831      101.89831      26.490587      28.075168      3041.3307          18106 
     18300   4.5515         296.54309     -204833.27     -204833.27     -203819.06     -50.869918      275195.14      101.91514      101.91514      26.494963      28.196444      3036.8659          18206 
     18400   4.5765         301.56807     -204838.72     -204838.72     -203807.33     -175.38087      275110.8       101.90473      101.90473      26.492256      27.822885      3032.6235          18306 
     18500   4.6015         299.44601     -204832.52     -204832.52     -203808.39     -1227.1698      275261.94      101.92339      101.92339      26.497106      27.096554      3028.8153          18406 
     18600   4.6265         297.87331     -204832.41     -204832.41     -203813.66      2876.5329      275033.56      101.89519      101.89519      26.489777      28.266781      3024.3355          18506 
     18700   4.6515         298.96555     -204837.44     -204837.44     -203814.95     -2201.0256      275284.91      101.92622      101.92622      26.497844      27.204203      3020.4703          18606 
     18800   4.6765         301.08157     -204846.36     -204846.36     -203816.63      2117.2909      275097.79      101.90313      101.90313      26.491839      27.218813      3016.5986          18706 
     18900   4.7015         297.58392     -204845.07     -204845.07     -203827.31     -3581.3173      275126.89      101.90672      101.90672      26.492772      27.627112      3012.4946          18806 
     19000   4.7265         299.69622     -204851.57     -204851.57     -203826.58      9.5856005      275099.45      101.90333      101.90333      26.491892      26.85977       3008.8393          18906 
     19100   4.7515         301.25477     -204847.84     -204847.84     -203817.52     -0.68293085     275195.02      101.91513      101.91513      26.494959      27.54983       3004.7858          19006 
     19200   4.7765         302.07879     -204845.34     -204845.34     -203812.21     -492.70978      275125.9       101.9066       101.9066       26.492741      27.825901      3000.5843          19106 
     19300   4.8015         301.67728     -204846.47     -204846.47     -203814.7       296.19228      275154.15      101.91008      101.91008      26.493647      27.172541      2996.7526          19206 
     19400   4.8265         297.12424     -204846.86     -204846.86     -203830.67     -192.10135      275010.23      101.89231      101.89231      26.489027      27.787042      2992.5824          19306 
     19500   4.8515         298.56362     -204852.71     -204852.71     -203831.59      1183.6115      275144.24      101.90886      101.90886      26.493329      28.168027      2988.2158          19406 
     19600   4.8765         299.10788     -204848.73     -204848.73     -203825.75      804.46721      275074.35      101.90023      101.90023      26.491086      28.132167      2983.8763          19506 
     19700   4.9015         300.01298     -204840.95     -204840.95     -203814.88     -983.6108       275161.3       101.91097      101.91097      26.493877      27.792221      2979.7232          19606 
     19800   4.9265         299.91735     -204840.84     -204840.84     -203815.1      -229.58614      275227.03      101.91908      101.91908      26.495986      27.505087      2975.7286          19706 
     19900   4.9515         301.07659     -204849.93     -204849.93     -203820.22     -976.25698      275027.47      101.89444      101.89444      26.489581      27.175678      2971.9162          19806 
     20000   4.9765         299.41324     -204848.69     -204848.69     -203824.67     -40.400786      275113.81      101.9051       101.9051       26.492353      25.833157      2968.8745          19906 
     20100   5.0015         300.19654     -204851.56     -204851.56     -203824.86      1512.9468      275170.15      101.91206      101.91206      26.494161      27.912478      2964.6715          20006 
     20200   5.0265         299.24712     -204850.25     -204850.25     -203826.8      -426.02619      275091.87      101.90239      101.90239      26.491648      27.747645      2960.5593          20106 
     20300   5.0515         300.49188     -204848.51     -204848.51     -203820.8      -718.26416      275170.31      101.91208      101.91208      26.494166      27.573584      2956.5419          20206 
     20400   5.0765         304.52978     -204848.14     -204848.14     -203806.61      2431.5485      275088.51      101.90198      101.90198      26.491541      27.76276       2952.4314          20306 
     20500   5.1015         299.80538     -204841.76     -204841.76     -203816.39     -2707.8043      275167.82      101.91177      101.91177      26.494086      27.608308      2948.4044          20406 
     20600   5.1265         299.49149     -204850.32     -204850.32     -203826.03      3450.736       275103.59      101.90384      101.90384      26.492024      27.608644      2944.3813          20506 
     20700   5.1515         298.14371     -204850.84     -204850.84     -203831.16     -1218.1492      275173.83      101.91251      101.91251      26.494279      27.921621      2940.2056          20606 
     20800   5.1765         298.20409     -204854.59     -204854.59     -203834.71     -3743.6196      275115.25      101.90528      101.90528      26.492399      27.908479      2936.0421          20706 
     20900   5.2015         298.31926     -204855.48     -204855.48     -203835.2       2285.8545      275123.49      101.9063       101.9063       26.492663      27.870884      2931.9026          20806 
     21000   5.2265         297.81809     -204851.87     -204851.87     -203833.3      -2505.0017      275254.45      101.92246      101.92246      26.496866      27.415361      2927.9939          20906 
     21100   5.2515         300.76596     -204852.97     -204852.97     -203824.32      214.17964      275115.89      101.90536      101.90536      26.492419      27.420534      2924.0851          21006 
     21200   5.2765         301.099       -204851.45     -204851.45     -203821.67     -1281.5798      275071.91      101.89993      101.89993      26.491008      27.581217      2920.0993          21106 
     21300   5.3015         301.29643     -204856.27     -204856.27     -203825.81      1071.2595      275108.77      101.90448      101.90448      26.492191      25.477459      2917.2294          21206 
     21400   5.3265         298.41629     -204859.64     -204859.64     -203839.02      204.38503      274970.36      101.88739      101.88739      26.487747      26.323863      2913.8834          21306 
     21500   5.3515         300.46286     -204870.01     -204870.01     -203842.4       874.36931      275182.37      101.91357      101.91357      26.494553      27.396192      2909.9872          21406 
     21600   5.3765         299.61934     -204864.21     -204864.21     -203839.48     -736.48385      275073.14      101.90008      101.90008      26.491047      27.262292      2906.1588          21506 
     21700   5.4015         303.11967     -204867.36     -204867.36     -203830.67      241.1887       275072.42      101.89999      101.89999      26.491024      27.360457      2902.2841          21606 
     21800   5.4265         300.75541     -204860.32     -204860.32     -203831.71     -808.59707      275150.26      101.9096       101.9096       26.493523      27.387122      2898.3986          21706 
     21900   5.4515         298.54954     -204854.76     -204854.76     -203833.69      359.94665      275063.53      101.89889      101.89889      26.490738      27.383169      2894.5172          21806 
     22000   5.4765         300.14069     -204858.7      -204858.7      -203832.19      2994.5597      275106.59      101.90421      101.90421      26.492121      27.043037      2890.8015          21906 
     22100   5.5015         299.2463      -204854.11     -204854.11     -203830.65     -1196.7178      275189.86      101.91449      101.91449      26.494794      27.622268      2886.8112          22006 
     22200   5.5265         298.85653     -204857.71     -204857.71     -203835.59      2309.2091      275083.74      101.90139      101.90139      26.491387      27.329672      2882.9609          22106 
     22300   5.5515         300.30331     -204872.15     -204872.15     -203845.09     -1298.3221      275079.09      101.90082      101.90082      26.491238      27.683085      2878.9486          22206 
     22400   5.5765         300.09088     -204873.55     -204873.55     -203847.21     -1187.6409      275144.41      101.90888      101.90888      26.493335      27.429489      2875.0562          22306 
     22500   5.6015         298.07043     -204861.36     -204861.36     -203841.93      1786.9754      275013.69      101.89274      101.89274      26.489139      27.157647      2871.2924          22406 
     22600   5.6265         301.67668     -204863.34     -204863.34     -203831.57      1591.0768      275139.14      101.90823      101.90823      26.493166      27.353983      2867.4383          22506 
     22700   5.6515         301.08481     -204860.68     -204860.68     -203830.94     -1068.5378      275039.06      101.89587      101.89587      26.489953      27.122511      2863.6928          22606 
     22800   5.6765         301.77734     -204866.14     -204866.14     -203834.03     -2009.3163      275182.1       101.91353      101.91353      26.494544      27.194949      2859.9144          22706 
     22900   5.7015         301.45254     -204871.89     -204871.89     -203840.9       2146.71        275029.98      101.89475      101.89475      26.489661      27.429651      2856.0303          22806 
     23000   5.7265         298.61148     -204870.72     -204870.72     -203849.44     -1660.3793      275075.76      101.9004       101.9004       26.491131      27.522629      2852.1069          22906 
     23100   5.7515         298.50537     -204874.14     -204874.14     -203853.22     -1211.5439      275131.94      101.90734      101.90734      26.492934      27.765853      2848.0795          23006 
     23200   5.7765         300.39063     -204874.57     -204874.57     -203847.2       328.10556      275060.93      101.89857      101.89857      26.490655      27.573341      2844.1395          23106 
     23300   5.8015         299.84552     -204860.05     -204860.05     -203834.55     -773.93992      275127.03      101.90674      101.90674      26.492777      27.0754        2840.4229          23206 
     23400   5.8265         299.94733     -204860.75     -204860.75     -203834.91      2059.8016      274990.28      101.88985      101.88985      26.488387      26.909651      2836.7813          23306 
     23500   5.8515         300.53644     -204866.99     -204866.99     -203839.13     -2913.4276      275230.66      101.91953      101.91953      26.496103      22.920564      2835.2556          23406 
     23600   5.8765         299.06679     -204873.16     -204873.16     -203850.33      3221.2866      275094.31      101.90269      101.90269      26.491727      25.231303      2832.4054          23506 
     23700   5.9015         298.37878     -204875.23     -204875.23     -203854.74     -201.60621      275049.52      101.89716      101.89716      26.490289      25.322359      2829.4997          23606 
     23800   5.9265         300.40534     -204879.15     -204879.15     -203851.74      186.12058      275044.46      101.89654      101.89654      26.490126      24.586741      2826.9655          23706 
     23900   5.9515         300.61316     -204877.73     -204877.73     -203849.61     -925.24759      275077.95      101.90068      101.90068      26.491202      25.138495      2824.1326          23806 
     24000   5.9765         299.73168     -204872.23     -204872.23     -203847.12     -574.85352      275069.42      101.89962      101.89962      26.490928      25.761034      2820.9842          23906 
     24100   6.0015         300.9652      -204869.56     -204869.56     -203840.23      554.16916      275185.84      101.914        101.914        26.494664      26.522989      2817.4766          24006 
     24200   6.0265         303.82024     -204868.18     -204868.18     -203829.09     -1473.8712      275180.93      101.91339      101.91339      26.494507      25.781902      2814.3081          24106 
     24300   6.0515         301.70675     -204862.41     -204862.41     -203830.54      1493.0915      275018.75      101.89336      101.89336      26.489301      26.74896       2810.6946          24206 
     24400   6.0765         302.24534     -204880.29     -204880.29     -203846.58      339.60875      275064.91      101.89906      101.89906      26.490783      26.222806      2807.3137          24306 
     24500   6.1015         299.39065     -204876.84     -204876.84     -203852.89     -3388.1969      275188.67      101.91434      101.91434      26.494755      26.158632      2803.9583          24406 
     24600   6.1265         299.7212      -204880.16     -204880.16     -203855.08      932.94069      274998.93      101.89092      101.89092      26.488665      25.162041      2801.0654          24506 
     24700   6.1515         299.70689     -204875.94     -204875.94     -203850.92      1303.1967      275113.31      101.90504      101.90504      26.492337      26.20286       2797.6801          24606 
     24800   6.1765         299.63857     -204868.34     -204868.34     -203843.54     -1961.9976      275052.14      101.89749      101.89749      26.490373      26.363397      2794.2204          24706 
     24900   6.2015         300.52056     -204866.21     -204866.21     -203838.4       1072.0955      275049.97      101.89722      101.89722      26.490303      26.157954      2790.8484          24806 
     25000   6.2265         299.81865     -204872.61     -204872.61     -203847.2       2278.7654      275059.92      101.89845      101.89845      26.490623      26.726638      2787.2275          24906 
     25100   6.2515         297.96117     -204876.88     -204876.88     -203857.82      162.11161      275098.98      101.90327      101.90327      26.491877      26.108425      2783.8713          25006 
     25200   6.2765         296.55121     -204871.88     -204871.88     -203857.64     -595.80627      275016.14      101.89304      101.89304      26.489217      25.404797      2780.8278          25106 
     25300   6.3015         301.20788     -204879.45     -204879.45     -203849.29     -597.12732      275072.04      101.89995      101.89995      26.491012      24.50093       2778.2081          25206 
     25400   6.3265         301.32677     -204875.69     -204875.69     -203845.13     -1963.1803      274984.34      101.88912      101.88912      26.488196      25.665742      2775.0301          25306 
     25500   6.3515         300.68575     -204874.45     -204874.45     -203846.08     -824.63761      275128.18      101.90688      101.90688      26.492814      25.804053      2771.7852          25406 
     25600   6.3765         301.28597     -204878.59     -204878.59     -203848.17     -970.15399      275052.75      101.89756      101.89756      26.490393      26.796924      2768.1159          25506 
     25700   6.4015         299.28875     -204874.47     -204874.47     -203850.87      2174.8147      275036.68      101.89558      101.89558      26.489877      26.92352       2764.3952          25606 
     25800   6.4265         299.19658     -204875.14     -204875.14     -203851.86      935.48006      275174.76      101.91263      101.91263      26.494309      26.058082      2761.031           25706 
     25900   6.4515         300.49482     -204887.76     -204887.76     -203860.04     -3140.767       275063.88      101.89894      101.89894      26.49075       25.756208      2757.7925          25806 
     26000   6.4765         298.23937     -204885.81     -204885.81     -203865.8      -1219.7132      275098.14      101.90317      101.90317      26.49185       23.672206      2755.5266          25906 
     26100   6.5015         297.19925     -204877.19     -204877.19     -203860.74     -3259.5313      275162.6       101.91113      101.91113      26.493919      24.395537      2752.8893          26006 
     26200   6.5265         300.33174     -204876.68     -204876.68     -203849.52      2026.2211      274934.01      101.8829       101.8829       26.48658       26.152811      2749.4611          26106 
     26300   6.5515         300.42199     -204876.17     -204876.17     -203848.69      1689.6043      275044.07      101.89649      101.89649      26.490114      25.701543      2746.219           26206 
     26400   6.5765         300.01317     -204876.27     -204876.27     -203850.19      346.87564      275125.35      101.90653      101.90653      26.492723      26.149061      2742.7854          26306 
     26500   6.6015         299.05614     -204882.71     -204882.71     -203859.91      661.94701      274980.2       101.8886       101.8886       26.488063      26.764089      2739.104           26406 
     26600   6.6265         297.07897     -204886.35     -204886.35     -203870.32     -807.1142       275133.64      101.90755      101.90755      26.492989      26.636232      2735.4718          26506 
     26700   6.6515         298.89526     -204889.46     -204889.46     -203867.21      1273.5897      275141.7       101.90855      101.90855      26.493248      26.850324      2731.7562          26606 
     26800   6.6765         298.94528     -204884.59     -204884.59     -203862.17     -813.10181      275020.62      101.8936       101.8936       26.489361      26.747885      2728.0796          26706 
     26900   6.7015         302.30258     -204886.73     -204886.73     -203852.82      498.56027      275078.75      101.90077      101.90077      26.491227      27.036972      2724.2934          26806 
     27000   6.7265         300.08522     -204879.63     -204879.63     -203853.31      1007.3964      275009.69      101.89225      101.89225      26.48901       27.849165      2720.2149          26906 
     27100   6.7515         300.97985     -204886.57     -204886.57     -203857.19      689.80345      275131.99      101.90735      101.90735      26.492936      28.134238      2716.0416          27006 
     27200   6.7765         299.80302     -204883.6      -204883.6      -203858.25      2425.0149      275090.82      101.90226      101.90226      26.491615      28.084098      2711.8899          27106 
     27300   6.8015         301.57652     -204889.7      -204889.7      -203858.28     -1311.4983      275091.3       101.90232      101.90232      26.49163       28.126913      2707.7281          27206 
     27400   6.8265         298.88355     -204887.33     -204887.33     -203865.12      2155.7066      275004.16      101.89156      101.89156      26.488833      26.922266      2703.9942          27306 
     27500   6.8515         299.07458     -204899.63     -204899.63     -203876.77      1412.1921      274981.29      101.88874      101.88874      26.488098      27.062023      2700.2097          27406 
     27600   6.8765         297.05777     -204895.52     -204895.52     -203879.55      1901.709       275114.66      101.90521      101.90521      26.49238       27.880744      2696.1398          27506 
     27700   6.9015         299.37124     -204893.2      -204893.2      -203869.32     -1574.8695      275123.15      101.90626      101.90626      26.492652      26.896645      2692.4176          27606 
     27800   6.9265         300.98804     -204895.27     -204895.27     -203865.86     -10.615026      275028.12      101.89452      101.89452      26.489602      27.018983      2688.6515          27706 
     27900   6.9515         300.42074     -204891.06     -204891.06     -203863.59      349.27904      275076.92      101.90055      101.90055      26.491168      26.820215      2684.957           27806 
     28000   6.9765         302.29159     -204892.65     -204892.65     -203858.79      1389.0367      274991.34      101.88998      101.88998      26.488421      26.387067      2681.4205          27906 
     28100   7.0015         302.23433     -204888.07     -204888.07     -203854.4       1432.7506      275039.48      101.89592      101.89592      26.489966      26.978281      2677.6686          28006 
     28200   7.0265         298.2531      -204883.03     -204883.03     -203862.98     -517.79185      275044.65      101.89656      101.89656      26.490132      26.957247      2673.9244          28106 
     28300   7.0515         298.79786     -204894.92     -204894.92     -203873         233.94267      275096.48      101.90296      101.90296      26.491796      25.957084      2670.5444          28206 
     28400   7.0765         298.98192     -204894.75     -204894.75     -203872.2       3431.8775      274934.81      101.883        101.883        26.486606      28.005177      2666.4473          28306 
     28500   7.1015         300.60175     -204893.3      -204893.3      -203865.21     -1575.2852      275073.99      101.90019      101.90019      26.491075      28.162236      2662.3038          28406 
     28600   7.1265         300.32744     -204887.33     -204887.33     -203860.19      897.0511       275191.7       101.91472      101.91472      26.494853      27.79337       2658.2827          28506 
     28700   7.1515         301.81942     -204890.59     -204890.59     -203858.34      1363.9491      275110.29      101.90467      101.90467      26.49224       27.709896      2654.2915          28606 
     28800   7.1765         298.77049     -204895.1      -204895.1      -203873.28     -1459.1641      275113.56      101.90507      101.90507      26.492345      27.383182      2650.4099          28706 
     28900   7.2015         297.49465     -204894.82     -204894.82     -203877.36      698.07006      275022.54      101.89383      101.89383      26.489423      27.654525      2646.4414          28806 
     29000   7.2265         298.69371     -204891.93     -204891.93     -203870.36      1083.7705      275102.72      101.90373      101.90373      26.491996      26.35821       2642.9127          28906 
     29100   7.2515         299.39493     -204886.76     -204886.76     -203862.8      -793.63264      275095         101.90278      101.90278      26.491749      25.937164      2639.533           29006 
     29200   7.2765         299.99922     -204886.09     -204886.09     -203860.07     -3468.6842      275057.63      101.89817      101.89817      26.490549      24.87251       2636.5519          29106 
     29300   7.3015         299.81926     -204890.83     -204890.83     -203865.42      1969.3279      275146.99      101.9092       101.9092       26.493418      25.753387      2633.2304          29206 
     29400   7.3265         300.04273     -204904.22     -204904.22     -203878.04     -2499.8105      274945.3       101.88429      101.88429      26.486942      26.321825      2629.7027          29306 
     29500   7.3515         298.54033     -204902.51     -204902.51     -203881.48     -601.27921      274962.36      101.8864       101.8864       26.48749       26.97186       2625.9534          29406 
     29600   7.3765         299.25504     -204898.51     -204898.51     -203875.03      1102.1424      275082.09      101.90119      101.90119      26.491334      27.789184      2621.9439          29506 
     29700   7.4015         301.73615     -204898.03     -204898.03     -203866.06      126.68098      275090.95      101.90228      101.90228      26.491619      27.459887      2618.0397          29606 
     29800   7.4265         301.0758      -204897.52     -204897.52     -203867.82      1100.9845      275030.92      101.89487      101.89487      26.489692      22.796848      2615.9             29706 
     29900   7.4515         301.16726     -204904.29     -204904.29     -203874.27      1103.7219      275034.58      101.89532      101.89532      26.489809      27.323269      2612.0338          29806 
     30000   7.4765         298.08232     -204901.84     -204901.84     -203882.37      1900.7043      275060.6       101.89853      101.89853      26.490645      25.621468      2608.7388          29906 
     30100   7.5015         299.59449     -204907.3      -204907.3      -203882.66     -3315.9457      275144.46      101.90889      101.90889      26.493337      26.533241      2605.1269          30006 
     30200   7.5265         299.8654      -204902.57     -204902.57     -203877        -2419.8599      274987.22      101.88947      101.88947      26.488289      26.279743      2601.5983          30106 
     30300   7.5515         303.10712     -204897.88     -204897.88     -203861.22      501.69097      275046.1       101.89674      101.89674      26.490179      25.341051      2598.3936          30206 
     30400   7.5765         301.1249      -204890.5      -204890.5      -203860.62     -219.18369      275051.34      101.89739      101.89739      26.490347      27.159562      2594.5763          30306 
     30500   7.6015         303.40146     -204904.54     -204904.54     -203866.88     -278.13646      275030.77      101.89485      101.89485      26.489687      27.439788      2590.6739          30406 
     30600   7.6265         300.77747     -204904.41     -204904.41     -203875.72     -1574.1473      275132.18      101.90737      101.90737      26.492942      27.718898      2586.6896          30506 
     30700   7.6515         300.65682     -204910.44     -204910.44     -203882.16     -481.18422      275042.97      101.89636      101.89636      26.490079      27.498286      2582.7734          30606 
     30800   7.6765         300.30125     -204914.65     -204914.65     -203887.59     -688.04671      275062.3       101.89874      101.89874      26.490699      26.585667      2579.1407          30706 
     30900   7.7015         297.4244      -204904        -204904        -203886.78      881.57974      274991.94      101.89005      101.89005      26.48844       27.899193      2575.1094          30806 
     31000   7.7265         301.44421     -204908.24     -204908.24     -203877.27      860.16789      274927.85      101.88214      101.88214      26.486382      28.025243      2571.0449          30906 
     31100   7.7515         300.86343     -204906.61     -204906.61     -203877.63     -404.79371      274994.71      101.8904       101.8904       26.488529      26.224759      2567.5288          31006 
     31200   7.7765         299.24264     -204904.58     -204904.58     -203881.14      775.37545      275096.19      101.90293      101.90293      26.491787      27.295196      2563.6796          31106 
     31300   7.8015         299.31525     -204910.41     -204910.41     -203886.72      640.70035      275061.29      101.89862      101.89862      26.490667      27.246235      2559.846           31206 
     31400   7.8265         296.90695     -204906.8      -204906.8      -203891.35     -2629.8501      275075.9       101.90042      101.90042      26.491136      27.261107      2556.0091          31306 
     31500   7.8515         300.91867     -204917.45     -204917.45     -203888.28      304.49366      274954.69      101.88545      101.88545      26.487244      25.342879      2552.7797          31406 
     31600   7.8765         300.59678     -204907.46     -204907.46     -203879.39      1070.6655      274932.14      101.88267      101.88267      26.48652       27.280789      2548.9364          31506 
     31700   7.9015         301.74127     -204905.95     -204905.95     -203873.96      2007.7725      275055.21      101.89787      101.89787      26.490471      27.456603      2545.0434          31606 
     31800   7.9265         301.83426     -204911.25     -204911.25     -203878.94     -2533.5183      275074.31      101.90023      101.90023      26.491085      27.481102      2541.145           31706 
     31900   7.9515         298.8995      -204914.94     -204914.94     -203892.68      506.03333      274996.69      101.89064      101.89064      26.488593      27.335682      2537.2898          31806 
     32000   7.9765         298.23276     -204913.04     -204913.04     -203893.06      702.81055      275082.32      101.90121      101.90121      26.491342      27.652042      2533.3464          31906 
     32100   8.0015         302.34705     -204920.48     -204920.48     -203886.43     -618.44935      274995.97      101.89055      101.89055      26.48857       27.97925       2529.3153          32006 
     32200   8.0265         299.89981     -204913.8      -204913.8      -203888.11     -42.470679      275000.47      101.89111      101.89111      26.488714      26.760087      2525.6313          32106 
     32300   8.0515         298.862       -204916.22     -204916.22     -203894.08     -513.26577      274998.56      101.89087      101.89087      26.488653      27.503497      2521.7344          32206 
     32400   8.0765         297.71873     -204924.71     -204924.71     -203906.48      1175.9442      274917.88      101.88091      101.88091      26.486062      26.715339      2518.0639          32306 
     32500   8.1015         298.29795     -204927.17     -204927.17     -203906.97     -2389.0384      275091.82      101.90239      101.90239      26.491647      27.017752      2514.3055          32406 
     32600   8.1265         299.29577     -204919.02     -204919.02     -203895.4       1839.9618      274993.32      101.89022      101.89022      26.488484      27.395518      2510.4415          32506 
     32700   8.1515         298.00905     -204911.29     -204911.29     -203892.07     -640.93979      275076.92      101.90055      101.90055      26.491168      27.12717       2506.6535          32606 
     32800   8.1765         299.486       -204915.33     -204915.33     -203891.06      1953.8193      275054.12      101.89773      101.89773      26.490436      27.154468      2502.8584          32706 
     32900   8.2015         300.29177     -204919.25     -204919.25     -203892.23      1792.1184      275130.35      101.90715      101.90715      26.492884      26.959171      2499.1187          32806 
     33000   8.2265         298.05685     -204919.55     -204919.55     -203900.17     -3417.7499      275108.56      101.90445      101.90445      26.492184      27.622978      2495.1974          32906 
     33100   8.2515         297.51996     -204925.03     -204925.03     -203907.48      3462.5107      274907.51      101.87963      101.87963      26.485729      27.633252      2491.2752          33006 
     33200   8.2765         297.78347     -204920.81     -204920.81     -203902.36     -483.83425      275028.39      101.89456      101.89456      26.489611      27.576732      2487.3699          33106 
     33300   8.3015         301.3216      -204922.69     -204922.69     -203892.14     -1844.9646      275146.6       101.90915      101.90915      26.493405      27.541154      2483.4756          33206 
     33400   8.3265         300.32606     -204920.38     -204920.38     -203893.23     -33.356521      274998.77      101.8909       101.8909       26.488659      26.985967      2479.7325          33306 
     33500   8.3515         301.17325     -204923.95     -204923.95     -203893.91      369.54359      274930.87      101.88251      101.88251      26.486479      27.672743      2475.8063          33406 
     33600   8.3765         301.045       -204926.12     -204926.12     -203896.52     -1359.0099      274966.32      101.88689      101.88689      26.487618      27.199435      2472.0067          33506 
     33700   8.4015         300.26952     -204932.57     -204932.57     -203905.62      618.21091      275149.2       101.90947      101.90947      26.493489      27.390698      2468.1572          33606 
     33800   8.4265         297.08434     -204929.92     -204929.92     -203913.87      1897.1575      274919.21      101.88107      101.88107      26.486105      27.203532      2464.3582          33706 
     33900   8.4515         296.86248     -204924.52     -204924.52     -203909.22      944.64763      275073.74      101.90016      101.90016      26.491066      27.711665      2460.428           33806 
     34000   8.4765         302.29116     -204932.03     -204932.03     -203898.17     -437.85123      274991.82      101.89004      101.89004      26.488436      27.021193      2456.6794          33906 
     34100   8.5015         300.96804     -204929.4      -204929.4      -203900.06      107.47603      275061.56      101.89865      101.89865      26.490675      26.605674      2453.0433          34006 
     34200   8.5265         299.69576     -204929.26     -204929.26     -203904.27      1415.9989      274994.21      101.89033      101.89033      26.488513      26.912027      2449.3238          34106 
     34300   8.5515         298.64319     -204926.65     -204926.65     -203905.26     -1099.718       275011         101.89241      101.89241      26.489052      26.013588      2445.8512          34206 
     34400   8.5765         301.63028     -204931.36     -204931.36     -203899.76      1173.4294      274992.24      101.89009      101.89009      26.48845       26.809376      2442.1579          34306 
     34500   8.6015         301.44923     -204924.12     -204924.12     -203893.14      1209.8216      275069.83      101.89967      101.89967      26.490941      26.351027      2438.588           34406 
     34600   8.6265         300.7857      -204920.63     -204920.63     -203891.92      537.6649       275027.38      101.89443      101.89443      26.489578      26.677325      2434.9288          34506 
     34700   8.6515         297.3328      -204921.12     -204921.12     -203904.22      1251.5465      275008.25      101.89207      101.89207      26.488964      26.973433      2431.1913          34606 
     34800   8.6765         297.74681     -204928.36     -204928.36     -203910.04     -60.412003      275143.59      101.90878      101.90878      26.493309      27.127285      2427.4144          34706 
     34900   8.7015         299.62888     -204931.5      -204931.5      -203906.74     -2499.5289      275069.29      101.89961      101.89961      26.490924      27.019817      2423.6655          34806 
     35000   8.7265         301.90128     -204933.22     -204933.22     -203900.69      842.73464      274891.19      101.87761      101.87761      26.485205      27.353105      2419.8327          34906 
     35100   8.7515         303.048       -204933.96     -204933.96     -203897.51     -2112.5312      275154.86      101.91017      101.91017      26.49367       27.806364      2415.8904          35006 
     35200   8.7765         302.15749     -204940.55     -204940.55     -203907.15      2055.0302      274866.61      101.87457      101.87457      26.484416      27.522008      2412.0187          35106 
     35300   8.8015         298.55454     -204936.25     -204936.25     -203915.17     -1631.6377      275049.54      101.89717      101.89717      26.49029       27.239701      2408.2176          35206 
     35400   8.8265         299.95352     -204936.73     -204936.73     -203910.86      1190.9418      274935.54      101.88309      101.88309      26.486629      26.923168      2404.4964          35306 
     35500   8.8515         301.6135      -204933.28     -204933.28     -203901.73      1327.7295      274930.45      101.88246      101.88246      26.486466      27.730903      2400.5778          35406 
     35600   8.8765         301.25387     -204931.46     -204931.46     -203901.14     -1649.3816      275055.17      101.89786      101.89786      26.49047       27.573563      2396.6984          35506 
     35700   8.9015         299.39023     -204931.02     -204931.02     -203907.07      492.62877      274962.15      101.88637      101.88637      26.487483      27.242328      2392.9001          35606 
     35800   8.9265         300.97319     -204939.3      -204939.3      -203909.94     -1236.392       275089.4       101.90209      101.90209      26.491569      27.880158      2388.9514          35706 
     35900   8.9515         299.77307     -204939.26     -204939.26     -203914         1520.7848      275082.3       101.90121      101.90121      26.491341      27.854408      2385.0106          35806 
     36000   8.9765         299.14324     -204937.01     -204937.01     -203913.91      582.06142      274868.88      101.87485      101.87485      26.484488      27.584507      2381.1344          35906 
     36100   9.0015         297.61954     -204925.75     -204925.75     -203907.86     -1380.8679      275059.07      101.89834      101.89834      26.490595      27.483498      2377.2834          36006 
     36200   9.0265         304.13459     -204938.83     -204938.83     -203898.66      2698.1283      274966.01      101.88685      101.88685      26.487608      26.913313      2373.5699          36106 
     36300   9.0515         300.89867     -204936.73     -204936.73     -203907.63     -1240.6404      275070.87      101.8998       101.8998       26.490974      27.481184      2369.7211          36206 
     36400   9.0765         299.18458     -204935.34     -204935.34     -203912.1       408.06558      275165.87      101.91153      101.91153      26.494024      27.291499      2365.9179          36306 
     36500   9.1015         301.45027     -204941.24     -204941.24     -203910.25     -1628.6937      274960.54      101.88617      101.88617      26.487432      27.115741      2362.1569          36406 
     36600   9.1265         300.55407     -204942.17     -204942.17     -203914.24     -3100.5199      275082.33      101.90122      101.90122      26.491342      27.046001      2358.4128          36506 
[...]
     91100   22.7515        298.617       -205124.36     -205124.36     -204103.06      935.13437      274801.02      101.86647      101.86647      26.482309      27.826514      333.73773          91006 
     91200   22.7765        300.1892      -205123.8      -205123.8      -204097.13     -2120.4033      274853.18      101.87291      101.87291      26.483984      27.82331       330.01568          91106 
     91300   22.8015        300.44154     -205117.21     -205117.21     -204089.67      2812.9878      274891.26      101.87762      101.87762      26.485207      27.665299      326.29589          91206 
     91400   22.8265        301.31519     -205120.98     -205120.98     -204090.46      271.30487      274893.9       101.87794      101.87794      26.485292      27.751066      322.57526          91306 
     91500   22.8515        300.26234     -205122.54     -205122.54     -204095.62     -499.0487       274801.43      101.86652      101.86652      26.482322      27.877297      318.85336          91406 
     91600   22.8765        300.10447     -205124.04     -205124.04     -204097.66     -254.77424      274818.61      101.86864      101.86864      26.482874      27.49514       315.13638          91506 
     91700   22.9015        300.47515     -205124.89     -205124.89     -204097.23     -500.88975      274874.26      101.87552      101.87552      26.484661      26.929298      311.42658          91606 
     91800   22.9265        299.37013     -205120.1      -205120.1      -204096.23      986.59111      274794.4       101.86565      101.86565      26.482096      26.425915      307.72317          91706 
     91900   22.9515        299.82797     -205119.98     -205119.98     -204094.54     -919.0925       274771.14      101.86278      101.86278      26.481349      26.872955      304.01396          91806 
     92000   22.9765        300.8212      -205128.42     -205128.42     -204099.59     -1588.7773      274827.92      101.86979      101.86979      26.483173      26.921128      300.30415          91906 
     92100   23.0015        298.84271     -205129.68     -205129.68     -204107.61     -1258.2688      274848.21      101.8723       101.8723       26.483825      26.907267      296.59448          92006 
     92200   23.0265        298.50163     -205128.19     -205128.19     -204107.29      796.71627      274864.73      101.87434      101.87434      26.484355      25.856306      292.89775          92106 
     92300   23.0515        302.10189     -205132.6      -205132.6      -204099.38      898.87591      274866.48      101.87456      101.87456      26.484411      18.615954      289.3278           92206 
     92400   23.0765        299.85017     -205116.22     -205116.22     -204090.7      -1506.8275      274882.76      101.87657      101.87657      26.484934      21.154145      285.70022          92306 
     92500   23.1015        303.16275     -205122.69     -205122.69     -204085.85     -3117.1437      274854.4       101.87306      101.87306      26.484023      26.815403      281.98824          92406 
     92600   23.1265        301.11564     -205124.63     -205124.63     -204094.78      996.72073      274839.86      101.87127      101.87127      26.483556      27.685313      278.26673          92506 
     92700   23.1515        298.35902     -205123.09     -205123.09     -204102.68     -1685.9935      274957.45      101.88579      101.88579      26.487333      27.654637      274.54578          92606 
     92800   23.1765        298.86147     -205124.85     -205124.85     -204102.71      2819.5157      274738.38      101.85873      101.85873      26.480296      27.478629      270.82688          92706 
     92900   23.2015        301.24974     -205131.53     -205131.53     -204101.23     -1916.8012      274826.71      101.86964      101.86964      26.483134      27.196728      267.11107          92806 
     93000   23.2265        299.29634     -205122.77     -205122.77     -204099.15      1844.0127      274743.88      101.85941      101.85941      26.480473      25.976758      263.40853          92906 
     93100   23.2515        302.37931     -205129.38     -205129.38     -204095.21     -1128.6772      274838.59      101.87111      101.87111      26.483515      26.380703      259.70124          93006 
     93200   23.2765        300.86279     -205121.67     -205121.67     -204092.69     -114.90421      274937.14      101.88328      101.88328      26.486681      26.66754       255.99076          93106 
     93300   23.3015        300.06116     -205119.44     -205119.44     -204093.2      -466.66494      274814.3       101.86811      101.86811      26.482735      26.155384      252.28554          93206 
     93400   23.3265        299.72072     -205125.47     -205125.47     -204100.4      -328.37347      274861.58      101.87395      101.87395      26.484254      26.879879      248.57268          93306 
     93500   23.3515        299.67061     -205135.48     -205135.48     -204110.58      3658.4648      274770.75      101.86273      101.86273      26.481336      27.120685      244.85747          93406 
     93600   23.3765        296.12587     -205126.55     -205126.55     -204113.77     -574.18211      274757.48      101.86109      101.86109      26.48091       27.152464      241.14202          93506 
     93700   23.4015        300.83316     -205136.19     -205136.19     -204107.31      71.386191      274804.29      101.86687      101.86687      26.482414      26.12603       237.43652          93606 
     93800   23.4265        299.64231     -205129.9      -205129.9      -204105.09     -508.0025       274743.74      101.85939      101.85939      26.480469      26.519878      233.72694          93706 
     93900   23.4515        299.32618     -205127.08     -205127.08     -204103.35     -177.95584      274806.06      101.86709      101.86709      26.482471      25.979109      230.02242          93806 
     94000   23.4765        299.47564     -205123.06     -205123.06     -204098.82      395.20682      274907.49      101.87962      101.87962      26.485728      26.696413      226.31088          93906 
     94100   23.5015        300.9346      -205127.42     -205127.42     -204098.19     -693.20338      274851.2       101.87267      101.87267      26.48392       26.587847      222.60023          94006 
     94200   23.5265        299.07083     -205123.99     -205123.99     -204101.14      2396.7484      274732.1       101.85795      101.85795      26.480095      27.673103      218.88025          94106 
     94300   23.5515        301.52754     -205133.42     -205133.42     -204102.17     -758.93273      274844.33      101.87182      101.87182      26.4837        27.781659      215.15962          94206 
     94400   23.5765        300.77923     -205131.66     -205131.66     -204102.97     -788.69803      274950.27      101.88491      101.88491      26.487102      27.42895       211.44204          94306 
     94500   23.6015        300.47973     -205130.09     -205130.09     -204102.42      1819.0865      274652.74      101.84814      101.84814      26.477545      27.677501      207.72267          94406 
     94600   23.6265        299.56577     -205126.08     -205126.08     -204101.53     -2190.1508      274802.98      101.86671      101.86671      26.482372      26.29633       204.01456          94506 
     94700   23.6515        298.85388     -205125.93     -205125.93     -204103.82      1595.9842      274713.68      101.85567      101.85567      26.479503      26.904227      200.30136          94606 
     94800   23.6765        298.71045     -205132.92     -205132.92     -204111.3       2547.4978      274830.52      101.87011      101.87011      26.483256      26.696048      196.58976          94706 
     94900   23.7015        297.02601     -205131.29     -205131.29     -204115.44      381.55567      274836.6       101.87086      101.87086      26.483452      27.026074      192.87559          94806 
     95000   23.7265        300.92276     -205136.17     -205136.17     -204106.98     -777.8844       274660.86      101.84915      101.84915      26.477806      26.181662      189.16785          94906 
     95100   23.7515        303.69454     -205135.18     -205135.18     -204096.51      79.746108      274811.23      101.86773      101.86773      26.482637      26.422763      185.45804          95006 
     95200   23.7765        301.60728     -205130.52     -205130.52     -204098.99     -1075.6157      274831.76      101.87027      101.87027      26.483296      26.491741      181.74757          95106 
     95300   23.8015        299.46854     -205127.41     -205127.41     -204103.2       546.60474      274839.24      101.87119      101.87119      26.483536      27.57462       178.0295           95206 
     95400   23.8265        299.68271     -205130.98     -205130.98     -204106.03      1094.1786      274886.97      101.87709      101.87709      26.485069      27.323096      174.31327          95306 
     95500   23.8515        298.26084     -205131.81     -205131.81     -204111.73     -740.5696       274792.53      101.86542      101.86542      26.482036      27.241731      170.59768          95406 
     95600   23.8765        296.9487      -205142.08     -205142.08     -204126.49     -2710.4747      274874.7       101.87557      101.87557      26.484675      26.995891      166.88375          95506 
     95700   23.9015        296.94518     -205137.37     -205137.37     -204121.79     -1275.2502      274802.43      101.86664      101.86664      26.482354      27.029461      163.16964          95606 
     95800   23.9265        298.82007     -205133.64     -205133.64     -204111.65      1883.4943      274717.63      101.85616      101.85616      26.47963       26.071664      159.46165          95706 
     95900   23.9515        300.36016     -205133.11     -205133.11     -204105.85     -3422.1599      274887.02      101.87709      101.87709      26.485071      27.304414      155.74582          95806 
     96000   23.9765        301.73254     -205136.6      -205136.6      -204104.64      3246.6471      274854.61      101.87309      101.87309      26.48403       27.028193      152.0317           95906 
     96100   24.0015        298.75962     -205130.41     -205130.41     -204108.62      488.76811      274880.27      101.87626      101.87626      26.484854      26.987445      148.31784          96006 
     96200   24.0265        299.57179     -205138.52     -205138.52     -204113.96      2811.1307      274739.29      101.85884      101.85884      26.480326      26.212801      144.60843          96106 
     96300   24.0515        299.4806      -205142.13     -205142.13     -204117.87     -420.60322      274899.56      101.87864      101.87864      26.485474      27.602516      140.89123          96206 
     96400   24.0765        297.93165     -205131.13     -205131.13     -204112.18     -378.70746      274829         101.86993      101.86993      26.483208      26.446105      137.1803           96306 
     96500   24.1015        302.26292     -205134.71     -205134.71     -204100.94     -1126.6032      274774.33      101.86317      101.86317      26.481451      26.347026      133.46975          96406 
     96600   24.1265        300.41164     -205129.66     -205129.66     -204102.22     -1616.402       274959.63      101.88606      101.88606      26.487403      26.224756      129.75967          96506 
     96700   24.1515        299.53526     -205126.94     -205126.94     -204102.5       1850.384       274870.94      101.87511      101.87511      26.484555      24.605783      126.0582           96606 
     96800   24.1765        300.59241     -205133.93     -205133.93     -204105.88      250.48056      274888.49      101.87728      101.87728      26.485118      27.756747      122.34025          96706 
     96900   24.2015        298.37606     -205137.28     -205137.28     -204116.8      -2230.5313      274884.75      101.87681      101.87681      26.484998      27.611652      118.62317          96806 
     97000   24.2265        298.21397     -205140.53     -205140.53     -204120.61     -248.78726      274877.61      101.87593      101.87593      26.484769      27.312468      114.90755          96906 
     97100   24.2515        298.87975     -205134.64     -205134.64     -204112.44      124.03586      274825.98      101.86955      101.86955      26.48311       27.666463      111.1906           97006 
     97200   24.2765        300.56819     -205132.53     -205132.53     -204104.56      1314.2022      274785.2       101.86451      101.86451      26.4818        27.776668      107.47343          97106 
     97300   24.3015        300.07156     -205129.63     -205129.63     -204103.36     -3418.2196      274753.03      101.86054      101.86054      26.480767      27.115822      103.75903          97206 
     97400   24.3265        300.15517     -205129.84     -205129.84     -204103.28     -700.18973      274835.45      101.87072      101.87072      26.483415      27.390815      100.04365          97306 
     97500   24.3515        298.48354     -205128.24     -205128.24     -204107.4       480.0601       274836.14      101.87081      101.87081      26.483437      27.095591      96.329471          97406 
     97600   24.3765        299.58525     -205143.4      -205143.4      -204118.79     -27.425016      274871.02      101.87512      101.87512      26.484557      26.313691      92.61814           97506 
     97700   24.4015        297.29275     -205136.93     -205136.93     -204120.16      2375.1304      274785.5       101.86455      101.86455      26.48181       27.252138      88.903418          97606 
     97800   24.4265        301.14209     -205141.9      -205141.9      -204111.97     -1253.0185      274868.9       101.87485      101.87485      26.484489      27.289073      85.188671          97706 
     97900   24.4515        299.31022     -205135.3      -205135.3      -204111.63     -892.70996      274865.66      101.87445      101.87445      26.484385      27.385708      81.473738          97806 
     98000   24.4765        299.96175     -205135.8      -205135.8      -204109.9       55.106651      274782.06      101.86412      101.86412      26.4817        26.819403      77.760583          97906 
     98100   24.5015        299.78142     -205133.87     -205133.87     -204108.59      2467.7928      274791.29      101.86527      101.86527      26.481996      26.76079       74.047562          98006 
     98200   24.5265        299.73086     -205134.4      -205134.4      -204109.29     -2931.4154      274784.7       101.86445      101.86445      26.481785      26.831861      70.334302          98106 
     98300   24.5515        299.75948     -205137.41     -205137.41     -204112.2       229.57149      274786.25      101.86464      101.86464      26.481834      27.145237      66.620228          98206 
     98400   24.5765        297.96085     -205137.45     -205137.45     -204118.4       342.962        274785.71      101.86458      101.86458      26.481817      27.120273      62.906274          98306 
     98500   24.6015        299.25414     -205141.81     -205141.81     -204118.33      1668.3985      274821.82      101.86904      101.86904      26.482977      26.869267      59.192932          98406 
     98600   24.6265        299.48762     -205137.18     -205137.18     -204112.9       1332.9685      274791.78      101.86533      101.86533      26.482012      26.930346      55.479446          98506 
     98700   24.6515        299.08203     -205129.89     -205129.89     -204107         350.55404      274812.68      101.86791      101.86791      26.482683      26.98094       51.765861          98606 
     98800   24.6765        302.56855     -205138.44     -205138.44     -204103.62      199.54084      274869.96      101.87499      101.87499      26.484523      27.316332      48.051694          98706 
     98900   24.7015        299.46513     -205142.78     -205142.78     -204118.58     -377.123        274811.95      101.86782      101.86782      26.48266       26.49894       44.339             98806 
     99000   24.7265        298.09705     -205141.23     -205141.23     -204121.71      1122.5332      274763.76      101.86186      101.86186      26.481112      25.843788      40.62724           98906 
     99100   24.7515        301.90814     -205148.98     -205148.98     -204116.42     -747.32932      274891.1       101.8776       101.8776       26.485202      25.768525      36.915276          99006 
     99200   24.7765        301.56441     -205141.15     -205141.15     -204109.78      6.7528527      274820.3       101.86885      101.86885      26.482928      26.093975      33.202534          99106 
     99300   24.8015        302.06243     -205139.02     -205139.02     -204105.93      823.66851      274747.74      101.85988      101.85988      26.480597      26.598209      29.48897           99206 
     99400   24.8265        301.40887     -205145.21     -205145.21     -204114.36      1147.9745      274777.31      101.86354      101.86354      26.481547      24.532201      25.777526          99306 
     99500   24.8515        298.76451     -205145.84     -205145.84     -204124.04     -122.90085      274885.45      101.8769       101.8769       26.48502       26.967748      22.063148          99406 
     99600   24.8765        300.10933     -205149.63     -205149.63     -204123.22      1920.9535      274731.89      101.85793      101.85793      26.480088      22.307673      18.352628          99506 
     99700   24.9015        298.13321     -205139.36     -205139.36     -204119.71     -3743.5216      274838.05      101.87104      101.87104      26.483498      27.213537      14.637361          99606 
     99800   24.9265        300.99288     -205137.68     -205137.68     -204108.25      3854.3232      274734.97      101.85831      101.85831      26.480187      24.86538       10.923199          99706 
     99900   24.9515        302.45053     -205139.81     -205139.81     -204105.4      -1348.9742      274815.95      101.86831      101.86831      26.482788      23.206537      7.2089793          99806 
    100000   24.9765        300.97679     -205143.47     -205143.47     -204114.1       60.506449      274806.87      101.86719      101.86719      26.482497      25.809056      3.4931598          99906 
    100094   25             298.62501     -205145.71     -205145.71     -204124.38      3025.6537      274754.86      101.86076      101.86076      26.480826      24.861986      0                 100000 
Loop time of 3716.42 on 6 procs for 100000 steps with 26460 atoms

Performance: 0.581 ns/day, 41.294 hours/ns, 26.908 timesteps/s
99.8% CPU use with 6 MPI tasks x 1 OpenMP threads

MPI task timing breakdown:
Section |  min time  |  avg time  |  max time  |%varavg| %total
---------------------------------------------------------------
Pair    | 3532.4     | 3546.5     | 3582       |  28.7 | 95.43
Neigh   | 2.7733     | 2.7763     | 2.7798     |   0.1 |  0.07
Comm    | 104.52     | 139.99     | 154        | 144.5 |  3.77
Output  | 3.2202     | 3.51       | 3.7991     |  10.7 |  0.09
Modify  | 18.45      | 18.744     | 18.978     |   4.4 |  0.50
Other   |            | 4.91       |            |       |  0.13

Nlocal:           4410 ave        4422 max        4400 min
Histogram: 2 0 0 0 0 3 0 0 0 1
Nghost:        9875.67 ave        9889 max        9851 min
Histogram: 1 0 0 1 0 0 0 1 1 2
Neighs:              0 ave           0 max           0 min
Histogram: 6 0 0 0 0 0 0 0 0 0
FullNghs:       452989 ave      455266 max      451593 min
Histogram: 2 0 0 1 2 0 0 0 0 1

Total # of neighbors = 2717932
Ave neighs/atom = 102.71852
Neighbor list builds = 107
Dangerous builds = 0

write_restart equil.init
System init for write_restart ...
write_data    equil.data
System init for write_data ...
Total wall time: 1:02:03
