LAMMPS (24 Mar 2022)
OMP_NUM_THREADS environment is not set. Defaulting to 1 thread. (src/comm.cpp:98)
  using 1 OpenMP thread(s) per MPI task

# System init

units      metal
dimension  3
boundary   p p p
atom_style atomic
timestep   0.00005


# read data
read_data Al2O3_trigonal_iter_last_lmp.data
Reading data file ...
  triclinic box = (0 0 0) to (14.415084 12.483828 13.116254) with tilt (-7.207542 0 0)
  2 by 1 by 3 MPI processor grid
  reading atoms ...
  270 atoms
  read_data CPU = 0.015 seconds
replicate 2 2 2
Replicating atoms ...
  triclinic box = (0 0 0) to (28.830168 24.967656 26.232508) with tilt (-14.415084 0 0)
  2 by 1 by 3 MPI processor grid
  2160 atoms
  replicate CPU = 0.001 seconds

# pair potential

pair_style hybrid/overlay eam/alloy edip/multi
pair_coeff * * eam/alloy Mishin-Ni-Al-2009.eam.alloy Al NULL
pair_coeff * * edip/multi NiAlO.edip Al O

mass 2 15.999

thermo 1000
thermo_style custom step temp pe etotal press vol


# reporting

dump   1 all atom 1000 generic.lammpstrj
dump   2 all custom 1000 unwrapped.lammpstrj id type xu yu zu

# Single point
min_style cg
minimize 1e-8 1e-8 10000 100000

CITE-CITE-CITE-CITE-CITE-CITE-CITE-CITE-CITE-CITE-CITE-CITE-CITE

Your simulation uses code contributions which should be cited:

- @article{cjiang2012
 author    = {Jian, Chao and Morgan, Dane, and Szlufarska, Izabella},
 title     = {Carbon tri-interstitial defect: A model for DII center},
 journal   = {Physical Review B},
 volume    = {86},
 pages     = {144118},
 year      = {2012},
}

@article{lpizzagalli2010,
 author    = {G. Lucas, M. Bertolus, and L. Pizzagalli},
 journal   = {J. Phys. : Condens. Matter 22},
 volume    = {22},
 pages     = {035802},
 year      = {2010},
}

CITE-CITE-CITE-CITE-CITE-CITE-CITE-CITE-CITE-CITE-CITE-CITE-CITE

WARNING: Using 'neigh_modify every 1 delay 0 check yes' setting during minimization (src/min.cpp:187)
Neighbor list info ...
  update every 1 steps, delay 0 steps, check yes
  max neighbors/atom: 2000, page size: 100000
  master list distance cutoff = 8.28721
  ghost atom cutoff = 8.28721
  binsize = 4.143605, bins = 11 7 7
  3 neighbor lists, perpetual/occasional/extra = 3 0 0
  (1) pair eam/alloy, perpetual, skip from (3)
      attributes: half, newton on
      pair build: skip
      stencil: none
      bin: none
  (2) pair edip/multi, perpetual
      attributes: full, newton on
      pair build: full/bin/atomonly
      stencil: full/bin/3d
      bin: standard
  (3) neighbor class addition, perpetual, half/full from (2)
      attributes: half, newton on
      pair build: halffull/newton
      stencil: none
      bin: none
Per MPI rank memory allocation (min/avg/max) = 8.17 | 8.171 | 8.171 Mbytes
   Step          Temp          PotEng         TotEng         Press          Volume    
         0   0             -15902.603     -15902.603     -63400.131      18882.729    
         7   0             -15957.347     -15957.347     -46795.14       18882.729    
Loop time of 0.0668638 on 6 procs for 7 steps with 2160 atoms

98.7% CPU use with 6 MPI tasks x 1 OpenMP threads

Minimization stats:
  Stopping criterion = energy tolerance
  Energy initial, next-to-last, final = 
     -15902.6031267937  -15957.3466314578  -15957.3466416017
  Force two-norm initial, final = 61.640996 0.0012348526
  Force max component initial, final = 1.6011772 3.6862234e-05
  Final line search alpha, max atom move = 1 3.6862234e-05
  Iterations, force evaluations = 7 14

MPI task timing breakdown:
Section |  min time  |  avg time  |  max time  |%varavg| %total
---------------------------------------------------------------
Pair    | 0.039106   | 0.047625   | 0.063239   |   4.9 | 71.23
Neigh   | 0          | 0          | 0          |   0.0 |  0.00
Comm    | 0.0012319  | 0.016857   | 0.025407   |   8.3 | 25.21
Output  | 0          | 0          | 0          |   0.0 |  0.00
Modify  | 0          | 0          | 0          |   0.0 |  0.00
Other   |            | 0.002381   |            |       |  3.56

Nlocal:            360 ave         371 max         349 min
Histogram: 3 0 0 0 0 0 0 0 0 3
Nghost:        3514.67 ave        3531 max        3494 min
Histogram: 1 0 0 0 2 1 0 0 0 2
Neighs:              0 ave           0 max           0 min
Histogram: 6 0 0 0 0 0 0 0 0 0
FullNghs:        43344 ave       44995 max       41693 min
Histogram: 3 0 0 0 0 0 0 0 0 3

Total # of neighbors = 260064
Ave neighs/atom = 120.4
Neighbor list builds = 0
Dangerous builds = 0

# Thermalisation

variable v equal vol

velocity all create 500 1 mom yes rot no
fix 1 all npt temp 500 4500 $(100*dt) iso 0.0 0.0 $(1000*dt)
fix 1 all npt temp 500 4500 0.0050000000000000001041 iso 0.0 0.0 $(1000*dt)
fix 1 all npt temp 500 4500 0.0050000000000000001041 iso 0.0 0.0 0.050000000000000002776
fix     2     all ave/time 1 1 1 c_thermo_temp file temp.dat
fix     3     all ave/time 1 1 1 v_v file vol.dat


run  2000000
Per MPI rank memory allocation (min/avg/max) = 7.06 | 7.061 | 7.062 Mbytes
   Step          Temp          PotEng         TotEng         Press          Volume    
         7   500           -15957.347     -15817.81      -38902.149      18882.729    
      1000   480.26051     -15789.798     -15655.771     -6170.3299      18853.551    
      2000   510.2589      -15823.629     -15681.23      -2392.6148      18843.969    
      3000   497.42809     -15819.293     -15680.475     -1389.6496      18843.204    
      4000   500.05991     -15818.674     -15679.121     -1229.1636      18797.153    
      5000   505.41388     -15816.918     -15675.871     -1963.3029      18862.578    
      6000   521.15785     -15815.521     -15670.08      -3844.8519      18817.885    
      7000   524.32342     -15816.686     -15670.362     -6274.1783      18855.994    
      8000   517.74959     -15818.589     -15674.1       -4176.0946      18849.655    
      9000   515.95121     -15808.95      -15664.963     -1642.1665      18801.925    
     10000   508.62281     -15814.155     -15672.212     -1070.2062      18856.697    
     11000   527.78084     -15809.93      -15662.641     -708.26846      18812.487    
     12000   524.16806     -15817.022     -15670.741     -736.037        18820.286    
     13000   515.05701     -15814.166     -15670.427      590.59512      18839.681    
     14000   524.28962     -15807.95      -15661.635      1604.7292      18780.277    
     15000   530.99602     -15811.272     -15663.086      1743.4925      18851.793    
     16000   523.06551     -15811.504     -15665.531      2333.7218      18796.902    
     17000   540.92081     -15807.172     -15656.216      3189.7967      18818.116    
     18000   537.83433     -15812.698     -15662.603      4093.7799      18833.015    
     19000   561.12958     -15801.836     -15645.24       5176.7867      18790.379    
     20000   532.99676     -15813.369     -15664.624      6496.9265      18829.274    
     21000   541.17925     -15805.413     -15654.385      8287.9701      18779.658    
     22000   548.19853     -15810.283     -15657.295      5864.7336      18799.938    
     23000   536.25344     -15805.825     -15656.171      2937.8641      18842.032    
     24000   542.60776     -15808.031     -15656.604      1907.7788      18797.54     
     25000   556.25173     -15804.02      -15648.785      1621.104       18860.121    
     26000   555.55448     -15799.94      -15644.9        2724.6506      18823.909    
     27000   537.58366     -15802.398     -15652.373      656.40164      18836.382    
     28000   570.71541     -15800.313     -15641.042     -767.51789      18874.132    
     29000   550.7712      -15797.587     -15643.882     -1269.5154      18830.62     
     30000   558.41923     -15805.042     -15649.202     -2184.7415      18876.116    
     31000   563.30046     -15799.863     -15642.662     -4196.0042      18865.784    
     32000   563.38769     -15798.85      -15641.624     -14827.577      18918.426    
     33000   580.39329     -15797.01      -15635.038     -7218.4277      18918.123    
     34000   573.6737      -15799.864     -15639.768     -4079.4278      18841.373    
     35000   550.98285     -15796.716     -15642.952     -2906.093       18888.869    
     36000   575.95464     -15795.093     -15634.36      -2462.7618      18863.594    
     37000   551.87497     -15794.27      -15640.257     -3570.1341      18860.585    
     38000   575.29646     -15802.486     -15641.936     -2883.8967      18885.354    
     39000   574.22929     -15792.579     -15632.327     -192.99291      18826.754    
     40000   585.28754     -15794.583     -15631.245      1071.5516      18862.366    
     41000   588.03874     -15789.847     -15625.742      2186.1289      18843.347    
     42000   585.00694     -15796.209     -15632.949      4031.5113      18809.321    
     43000   585.48787     -15793.911     -15630.518      5653.4688      18849.227    
     44000   604.72196     -15791.788     -15623.026      10014.498      18779.082    
     45000   601.38563     -15792.134     -15624.304      8791.8586      18822.851    
     46000   573.26411     -15789.654     -15629.672      3316.72        18846.297    
     47000   606.28261     -15786.252     -15617.055      1829.9216      18830.69     
     48000   596.88776     -15790.35      -15623.775      1211.4485      18879.388    
     49000   585.04874     -15793.862     -15630.591     -302.19421      18825.81     
     50000   586.70809     -15788.227     -15624.493     -3316.2386      18889.465    
     51000   618.10493     -15789.954     -15617.458     -3463.3979      18884.094    
     52000   611.65956     -15789.106     -15618.409     -3965.0602      18867.777    
     53000   613.36631     -15783.597     -15612.423     -5137.5274      18915.942    
     54000   599.35616     -15787.793     -15620.53      -11102.059      18899.962    
     55000   591.25064     -15788.197     -15623.195     -7356.9303      18913.121    
     56000   609.15422     -15784.756     -15614.758     -3191.8243      18884.85     
     57000   627.34296     -15784.71      -15609.636     -2013.0919      18865.319    
     58000   613.41385     -15788.223     -15617.036     -1207.3062      18886.117    
     59000   639.65213     -15785.147     -15606.637      1890.9075      18833.959    
     60000   629.18856     -15778.597     -15603.007      2758.8882      18874.351    
     61000   620.32004     -15785.629     -15612.514      3258.0615      18858.07     
     62000   641.28538     -15779.443     -15600.478      4368.0795      18837.405    
     63000   623.49826     -15782.244     -15608.243      7818.7991      18853.291    
     64000   650.03638     -15779.967     -15598.559      9948.0767      18817.29     
     65000   610.89302     -15784.589     -15614.106      2612.2268      18861.616    
     66000   630.82339     -15778.183     -15602.137      1287.8071      18885.592    
     67000   625.27461     -15783.729     -15609.232      700.7959       18862.461    
     68000   637.18401     -15774.136     -15596.316     -1897.8832      18912.788    
     69000   625.33008     -15774.712     -15600.2       -4678.5584      18907.979    
     70000   629.32618     -15776.739     -15601.111     -5154.2279      18911.558    
     71000   634.98451     -15775.572     -15598.365     -5045.8829      18917.228    
     72000   643.47946     -15779.855     -15600.278     -4626.6031      18889.778    
     73000   643.62121     -15776.034     -15596.417     -4301.69        18912.924    
     74000   662.96133     -15768.158     -15583.143     -3737.1195      18906.709    
     75000   650.60903     -15776.28      -15594.713     -1332.3547      18883.722    
     76000   648.4867      -15761.807     -15580.832      1493.4368      18900.397    
     77000   671.48358     -15776.687     -15589.295      1737.488       18861.969    
     78000   633.2451      -15772.465     -15595.744      2517.3031      18876.779    
     79000   650.62453     -15771.869     -15590.297      4899.7344      18861.348    
     80000   661.35821     -15770.959     -15586.393      10823.563      18825.515    
     81000   668.39877     -15771.251     -15584.719      4444.3767      18873.017    
     82000   666.43249     -15770.237     -15584.254      1415.7971      18876.236    
     83000   675.18249     -15767.785     -15579.36      -426.90045      18904.615    
     84000   651.70248     -15759.567     -15577.695     -2616.6419      18911.604    
     85000   667.48677     -15772.528     -15586.251     -9177.217       18936.18     
     86000   682.53475     -15766.356     -15575.88      -6723.6714      18930.741    
     87000   670.71908     -15761.744     -15574.565     -4264.5139      18919.343    
     88000   681.13444     -15766.636     -15576.55      -3359.3707      18927.159    
     89000   671.52737     -15761.871     -15574.466     -2441.3758      18909.071    
     90000   690.717       -15773.265     -15580.505     -193.98216      18897.672    
     91000   671.38602     -15764.773     -15577.407      2529.5653      18887.563    
     92000   655.93313     -15762.709     -15579.656      3887.6363      18874.421    
     93000   694.45498     -15763.189     -15569.386      2198.1304      18901.244    
     94000   679.609       -15759.185     -15569.525      1753.3648      18891.378    
     95000   682.88788     -15764.821     -15574.246      2281.3618      18885.792    
     96000   695.59916     -15756.896     -15562.774      3318.9193      18904.787    
     97000   679.91505     -15758.092     -15568.346      361.5892       18896.588    
     98000   710.41428     -15761.909     -15563.651     -2372.4492      18923.585    
     99000   691.97565     -15758.912     -15565.8       -1764.0755      18903.391    
    100000   724.29786     -15761.264     -15559.133     -1301.8009      18911.878    
    101000   721.03861     -15753.148     -15551.926     -1980.2108      18929.603    
    102000   721.30991     -15755.631     -15554.333     -2804.0944      18914.386    
    103000   718.9008      -15760.756     -15560.131     -1615.7149      18916.078    
    104000   690.27549     -15754.946     -15562.309      965.70823      18904.663    
    105000   708.59948     -15752.113     -15554.362      5021.1357      18887.324    
    106000   700.45937     -15746.673     -15551.194      7247.9776      18887.782    
    107000   697.74088     -15751.851     -15557.13       4068.8137      18893.781    
    108000   701.56861     -15754.542     -15558.754      2525.583       18899.94     
    109000   737.3425      -15756.725     -15550.953      2269.5759      18903.16     
    110000   732.97786     -15758.127     -15553.573      1522.9094      18901.598    
    111000   724.67177     -15752.227     -15549.991     -2761.148       18939.305    
    112000   727.11364     -15752.05      -15549.133     -3250.6838      18933.493    
    113000   740.34594     -15750.85      -15544.24      -3924.4103      18944.64     
    114000   730.65825     -15747.533     -15543.626     -6137.4885      18962.344    
    115000   741.91223     -15741.715     -15534.667     -10820.088      18980.54     
    116000   736.24105     -15753.557     -15548.092     -1659.3987      18935.48     
    117000   736.72188     -15751.737     -15546.139      981.18443      18914.155    
    118000   712.6755      -15744.143     -15545.255      2491.775       18912.304    
    119000   749.09976     -15745.845     -15536.791      8058.4207      18895.303    
    120000   745.01924     -15744.498     -15536.583      9969.0267      18878.328    
    121000   739.4882      -15749.454     -15543.083      4118.022       18903.739    
    122000   761.30933     -15743.323     -15530.863      1955.6636      18920.702    
    123000   742.65347     -15754.463     -15547.209     -855.0673       18921.258    
    124000   774.04723     -15742.609     -15526.593     -6603.2803      18975.691    
    125000   739.82888     -15744.459     -15537.993     -8434.9855      18972.151    
    126000   752.81954     -15747.143     -15537.051     -4046.1617      18947.378    
    127000   754.01655     -15740.933     -15530.508     -3489.9786      18959.958    
    128000   755.0233      -15739.182     -15528.475     -3302.0307      18952.318    
    129000   750.391       -15746.355     -15536.942      2034.5345      18924.594    
    130000   771.97101     -15733.501     -15518.065      3341.6055      18936.894    
    131000   763.68835     -15738.352     -15525.228      4902.3446      18909.464    
    132000   768.41293     -15736.513     -15522.07       6916.1834      18912.202    
    133000   764.1377      -15737.024     -15523.774      7048.3626      18911.159    
    134000   782.51505     -15736.542     -15518.164      776.52783      18933.462    
    135000   791.45337     -15734.105     -15513.232     -974.04655      18963.829    
    136000   771.48716     -15741.759     -15526.458     -2968.851       18949.702    
    137000   756.65623     -15728.784     -15517.622     -9303.1346      19002.695    
    138000   753.46547     -15733.483     -15523.212     -7404.6022      18992.171    
    139000   761.29651     -15735.146     -15522.689     -2552.3027      18945.731    
    140000   770.76721     -15733.385     -15518.285      440.43844      18954.129    
    141000   777.80714     -15727.208     -15510.143      1233.4413      18938.875    
    142000   788.52837     -15725.335     -15505.278      1262.2087      18962.133    
    143000   793.92234     -15729.146     -15507.583      1387.4406      18953.34     
    144000   763.06378     -15726.503     -15513.553      2629.9038      18929.466    
    145000   782.02355     -15733.053     -15514.811     -119.50989      18963.771    
    146000   811.17119     -15731.816     -15505.44      -4882.6777      18976.035    
    147000   787.06333     -15728.161     -15508.513     -4082.2668      18989.67     
    148000   794.20306     -15727.784     -15506.144     -1955.5112      18967.596    
    149000   802.97671     -15724.938     -15500.849     -1698.3311      18977.408    
    150000   786.28802     -15731.599     -15512.167     -570.05596      18957.553    
    151000   804.53066     -15727.2       -15502.678      3970.3842      18941.56     
    152000   817.49252     -15725.344     -15497.204      4187.3766      18947.793    
    153000   820.69283     -15722.873     -15493.84       3066.654       18948.833    
    154000   809.13424     -15728.922     -15503.115      1182.7282      18954.389    
    155000   814.74339     -15718.725     -15491.352     -7.7964363      18973.608    
    156000   827.87946     -15728.953     -15497.914     -131.3857       18954.965    
    157000   808.87584     -15720.393     -15494.658     -2239.6581      18980.468    
    158000   840.66658     -15723.588     -15488.981     -4438.4995      18987.495    
    159000   808.92385     -15721.622     -15495.874     -5127.8829      18991.781    
    160000   839.85421     -15719.508     -15485.127     -458.27498      18974.482    
    161000   810.84556     -15713.585     -15487.3        1526.9038      18956.393    
    162000   803.75318     -15718.777     -15494.471      2057.6842      18969.308    
    163000   841.04425     -15714.603     -15479.89       3635.2429      18958.365    
    164000   806.74423     -15717.963     -15492.823      4191.3814      18961.935    
    165000   831.80782     -15718.479     -15486.344      182.1567       18971.704    
    166000   817.19154     -15719.025     -15490.969     -3655.3776      18988.548    
    167000   856.16113     -15717.268     -15478.337     -2824.5393      19004.094    
    168000   805.58586     -15713.654     -15488.837     -1371.5243      18983.438    
    169000   846.84823     -15715.403     -15479.071     -1415.6873      18996.315    
    170000   838.54999     -15711.651     -15477.635     -1115.0764      18997.828    
    171000   831.73775     -15716.293     -15484.178      4267.5443      18950.565    
    172000   856.93255     -15707.946     -15468.8        4755.7733      18982.828    
    173000   835.75548     -15708.978     -15475.742      2423.6919      18970.222    
    174000   855.71898     -15709.596     -15470.788      1051.1013      18983.672    
    175000   835.93458     -15717.621     -15484.334      116.42289      18984.779    
    176000   866.02217     -15706.08      -15464.396     -93.547714      18990.857    
    177000   859.79482     -15703.877     -15463.932     -801.62648      19011.74     
    178000   856.76962     -15708.94      -15469.839     -3298.9975      19006.668    
    179000   841.95278     -15712.444     -15477.478     -7663.5292      19025.877    
    180000   827.28771     -15707.614     -15476.74      -5116.0805      19025.047    
    181000   828.8936      -15703.517     -15472.196      285.98558      18987.171    
    182000   868.42397     -15702.048     -15459.695      1346.3905      18989.905    
    183000   873.0715      -15703.999     -15460.349      3179.5484      18978.498    
    184000   870.69536     -15700.132     -15457.145      4059.7223      18979.658    
    185000   850.31538     -15696.043     -15458.743      2978.8635      18996.801    
    186000   868.34202     -15704.919     -15462.588     -2178.1533      18992.203    
    187000   883.31964     -15703.509     -15456.999     -3711.4104      19024.527    
    188000   879.33163     -15697.442     -15452.044     -1362.0218      18999.5      
    189000   878.8268      -15699.797     -15454.541     -1380.6177      19013.6      
    190000   890.18123     -15703.987     -15455.562      685.9631       19000.031    
    191000   884.36851     -15702.49      -15455.687      6210.0759      18961.94     
    192000   860.36522     -15700         -15459.895      7225.0844      18971.621    
    193000   888.06035     -15699.95      -15452.117      1793.6163      18987.319    
    194000   885.74586     -15694.681     -15447.493      837.2446       18996.756    
    195000   888.5458      -15705.649     -15457.68      -2228.9624      19015.764    
    196000   884.46555     -15696.452     -15449.622     -7695.263       19031.039    
    197000   896.80294     -15697.207     -15446.934     -6663.1726      19057.549    
    198000   911.1619      -15702.067     -15447.786     -2010.9374      19008.454    
    199000   871.98676     -15696.296     -15452.949      991.72792      19003.031    
    200000   899.24122     -15691.626     -15440.673      1184.3777      19025.706    
    201000   909.50872     -15695.281     -15441.462      756.84452      19002.464    
    202000   913.28322     -15684.678     -15429.805      219.28061      19037.821    
    203000   925.14975     -15696.006     -15437.822     -2066.9236      19028.719    
    204000   915.21268     -15694.903     -15439.493     -6804.0394      19044.087    
    205000   907.23225     -15692.771     -15439.587     -8108.7995      19049.914    
    206000   916.45239     -15692.35      -15436.593     -1218.0114      19010.495    
    207000   915.59546     -15687.109     -15431.591      681.15501      19021.058    
    208000   927.36825     -15683.997     -15425.194      2803.1933      19008.738    
    209000   898.72306     -15692.407     -15441.598      7591.0835      18977.688    
    210000   935.42119     -15688.19      -15427.14       3904.0727      18997.062    
    211000   914.21941     -15686.479     -15431.345     -1194.2185      19022.61     
    212000   908.87155     -15695.603     -15441.962     -1895.0381      19005.802    
    213000   944.88353     -15685.378     -15421.687     -1117.2931      19028.269    
    214000   961.34885     -15679.479     -15411.192     -530.66448      19044.177    
    215000   922.49954     -15690.022     -15432.578      850.23355      19013.154    
    216000   937.8802      -15679.068     -15417.331      6942.2571      19014.925    
    217000   940.36881     -15683.537     -15421.106      9374.9245      18985.09     
    218000   907.62941     -15679.583     -15426.288      2320.1938      19021.591    
    219000   919.76979     -15686.877     -15430.195      158.37395      19033.241    
    220000   955.91266     -15680.959     -15414.19      -2239.7093      19044.66     
    221000   941.66957     -15685.252     -15422.458     -5643.54        19062.582    
    222000   961.99454     -15679.673     -15411.207     -5666.5063      19068.499    
    223000   938.16124     -15681.229     -15419.414     -2013.3479      19040.669    
    224000   958.69284     -15680.477     -15412.932      5672.9583      19018.044    
    225000   945.6009      -15677.228     -15413.336      5707.4614      19001.119    
    226000   963.48163     -15677.533     -15408.652      2529.0681      19035.323    
    227000   949.93682     -15675.95      -15410.848     -41.765147      19048.659    
    228000   965.00591     -15677.805     -15408.498     -6487.2861      19079.06     
    229000   963.79744     -15679.935     -15410.966     -8953.3543      19083.598    
    230000   940.3738      -15673.985     -15411.552     -2662.9903      19049.912    
    231000   956.01156     -15673.03      -15406.233      346.0756       19059.704    
    232000   949.97725     -15666.103     -15400.99       7052.1386      19027.837    
    233000   964.21806     -15665.917     -15396.83       10443.337      18994.386    
    234000   1004.1893     -15674.564     -15394.322      2568.6248      19039.898    
    235000   966.82039     -15668.474     -15398.661     -425.1394       19055.694    
    236000   951.11873     -15669.192     -15403.76      -10662.835      19095.904    
    237000   991.83338     -15673.503     -15396.71      -8504.8044      19093.615    
    238000   991.42086     -15662.477     -15385.799     -4003.8214      19085.566    
    239000   974.27633     -15663.891     -15391.997     -52.527721      19081.977    
    240000   969.06418     -15662.65      -15392.211      9446.9927      19009.748    
    241000   968.35811     -15673.801     -15403.558      7475.9902      19012.142    
    242000   1015.2067     -15664.532     -15381.216      4085.8887      19035.3      
    243000   1007.2427     -15671.877     -15390.783      432.42481      19033.207    
    244000   973.19344     -15672.663     -15401.071     -11317.815      19118.225    
    245000   998.83514     -15665.864     -15387.117     -6259.0814      19077.067    
    246000   983.44055     -15664.126     -15389.674     -3714.0788      19071.72     
    247000   1040.486      -15663.267     -15372.895      436.06215      19077.49     
    248000   1027.0027     -15661.832     -15375.223      10009.713      19009.007    
    249000   994.26279     -15666.209     -15388.738      4468.5464      19049.991    
    250000   1002.0941     -15663.116     -15383.459      3618.1377      19060.871    
    251000   1006.8894     -15661.086     -15380.091      437.08737      19060.032    
    252000   1017.2657     -15659.309     -15375.418     -6491.409       19128.182    
    253000   994.11642     -15663.271     -15385.84      -3587.4998      19083.453    
    254000   1004.2154     -15658.728     -15378.479     -2763.9741      19081.955    
    255000   998.64655     -15663.468     -15384.773      2956.803       19049.654    
    256000   1012.3852     -15661.75      -15379.221      6805.6262      19015.165    
    257000   992.99438     -15657.255     -15380.137      3346.3082      19066.608    
    258000   989.90304     -15660.7       -15384.445      867.01663      19050.32     
    259000   1035.0948     -15651.226     -15362.36      -3596.8177      19108.959    
    260000   1017.0205     -15661.872     -15378.049     -11059.021      19138.943    
    261000   1007.4118     -15650.848     -15369.707     -4789.2582      19090.865    
    262000   1027.0595     -15654.584     -15367.96       340.54837      19101.075    
    263000   1001.3044     -15654.708     -15375.272      2995.3502      19047.24     
    264000   1051.8343     -15654.699     -15361.161      5708.6006      19055.862    
    265000   1075.6024     -15646.124     -15345.952      2458.7183      19083.204    
    266000   1034.3996     -15657.797     -15369.125     -5501.1285      19091.523    
    267000   1009.0953     -15649.811     -15368.201     -6868.4952      19125.365    
    268000   1057.0438     -15649.185     -15354.193     -2015.2166      19087.815    
    269000   1031.9497     -15652.803     -15364.814     -252.00322      19078.721    
    270000   1023.0458     -15645.244     -15359.74       8522.8685      19043.48     
    271000   1043.019      -15651.006     -15359.928      7116.9403      19040.076    
    272000   1058.2985     -15650.397     -15355.055      2019.2256      19088.213    
    273000   1045.2879     -15644.418     -15352.707     -666.57842      19084.506    
    274000   1049.8992     -15643.463     -15350.465     -456.12504      19113.118    
    275000   1039.6827     -15643.847     -15353.7       -887.82512      19106.593    
    276000   1046.6552     -15641.159     -15349.066     -2380.0161      19108.037    
    277000   1037.2339     -15648.46      -15358.997     -198.58604      19111.5      
    278000   1075.4035     -15635.207     -15335.091      7980.0187      19071.354    
    279000   1080.6975     -15638.415     -15336.822      4745.8039      19085.363    
    280000   1060.1305     -15643.427     -15347.573      1154.0622      19093.793    
    281000   1091.1908     -15644.555     -15340.033     -1352.2244      19106.702    
    282000   1049.1494     -15638.67      -15345.881     -8850.8108      19149.931    
    283000   1063.5157     -15639.629     -15342.831     -6665.3028      19140.716    
    284000   1080.761      -15632.669     -15331.058     -392.35287      19112.92     
    285000   1089.1146     -15641.01      -15337.068      1030.0819      19086.637    
    286000   1088.7796     -15634.213     -15330.364      1700.953       19098.227    
    287000   1063.39       -15642.18      -15345.417      2052.7138      19075.78     
    288000   1099.2612     -15634.299     -15327.525     -3549.0553      19130.195    
    289000   1100.2512     -15650.495     -15343.445     -8580.6859      19133.732    
    290000   1091.3904     -15631.265     -15326.688     -3449.5983      19146.526    
    291000   1075.2362     -15633.391     -15333.322      513.65544      19124.803    
    292000   1101.3807     -15633.799     -15326.433      1854.1396      19087.807    
    293000   1106.443      -15635.179     -15326.401      5568.1487      19107.529    
    294000   1066.7818     -15633.539     -15335.829     -81.354262      19123.411    
    295000   1118.1366     -15615.208     -15303.166     -4076.4415      19149.374    
    296000   1100.5998     -15646.02      -15338.873     -2213.6035      19115.121    
    297000   1072.4249     -15634.299     -15335.014     -663.19778      19094.841    
    298000   1107.4314     -15625.312     -15316.258      2244.3695      19112.54     
    299000   1095.5814     -15623.104     -15317.357      8092.7341      19094.862    
    300000   1113.0124     -15633.424     -15322.813      5317.2151      19090.527    
    301000   1084.3988     -15617.059     -15314.433     -1610.7414      19171.386    
    302000   1089.0624     -15628.225     -15324.297     -2664.0647      19130.867    
    303000   1134.3579     -15617.177     -15300.609     -3623.4349      19175.309    
    304000   1094.659      -15622.622     -15317.133     -2047.3119      19165.603    
    305000   1109.2478     -15625.186     -15315.625      3823.7866      19100.511    
    306000   1139.9209     -15620.2       -15302.079      8223.2897      19137.384    
    307000   1125.1355     -15623.734     -15309.739      7380.7423      19115.996    
    308000   1124.6886     -15624.778     -15310.908      2044.2212      19146.657    
    309000   1120.3488     -15618.862     -15306.204     -2755.4247      19191.591    
    310000   1111.8054     -15623.074     -15312.8       -6876.0997      19190.686    
    311000   1143.0067     -15612.719     -15293.737     -9651.7974      19235.631    
    312000   1103.2802     -15618.985     -15311.09      -209.21113      19148.024    
    313000   1075.437      -15620.417     -15320.292      2698.5639      19130.207    
    314000   1145.4314     -15622.106     -15302.448      6454.0823      19118.496    
    315000   1120.209      -15623.68      -15311.06       4451.152       19111.086    
    316000   1139.4001     -15607.699     -15289.723     -3759.1746      19191.042    
    317000   1120.5134     -15610.293     -15297.588     -7232.9135      19190.626    
    318000   1128.3266     -15611.821     -15296.936     -5108.6712      19179.298    
    319000   1141.9545     -15620.539     -15301.851      2836.2832      19130.846    
    320000   1142.1515     -15607.721     -15288.977      5615.4265      19123.159    
    321000   1117.4373     -15612.333     -15300.487      3320.3424      19144.127    
    322000   1158.8953     -15612.9       -15289.484      380.50388      19132.451    
    323000   1171.1402     -15600.093     -15273.259     -9036.1071      19235.39     
    324000   1139.7675     -15609.204     -15291.126     -8504.1423      19198.282    
    325000   1129.2489     -15610.084     -15294.942     -1272.5476      19156.687    
    326000   1195.2952     -15615.031     -15281.457     -139.7084       19168.489    
    327000   1159.4245     -15615.141     -15291.578      4295.8185      19128.965    
    328000   1185.7014     -15607.395     -15276.498      11129.2        19133.897    
    329000   1164.1852     -15599.711     -15274.819      1973.2302      19192.67     
    330000   1164.8457     -15603.867     -15278.791     -304.56405      19190.383    
    331000   1147.6705     -15593.3       -15273.016     -3645.7935      19250.063    
    332000   1150.9642     -15601.295     -15280.093     -9856.711       19225.115    
    333000   1173.3269     -15604.274     -15276.831     -4401.729       19191.994    
    334000   1148.3641     -15601.346     -15280.869      2595.7698      19177.33     
    335000   1131.7106     -15595.058     -15279.228      6887.7365      19143.079    
    336000   1151.5853     -15593.982     -15272.606      2958.7491      19212.754    
    337000   1188.8617     -15589.049     -15257.27       100.64051      19201.762    
    338000   1212.575      -15611.75      -15273.354     -2087.3616      19200.95     
    339000   1204.6513     -15598.109     -15261.924      1763.1134      19194.893    
    340000   1166.7662     -15603.565     -15277.952      7688.8742      19133.724    
    341000   1213.581      -15603.446     -15264.769      5169.4921      19178.525    
    342000   1165.5391     -15589.73      -15264.46       3094.3784      19185.095    
    343000   1184.2112     -15607.202     -15276.721     -512.11545      19209.276    
    344000   1194.3408     -15599.083     -15265.776      79.257954      19208.976    
    345000   1160.4675     -15582.489     -15258.635      4574.6283      19188.564    
    346000   1169.7715     -15596.712     -15270.261      11250.908      19182.98     
    347000   1182.483      -15580.474     -15250.475      1570.2498      19250.328    
    348000   1179.5652     -15591.932     -15262.748     -40.43789       19249.57     
    349000   1171.7715     -15601.699     -15274.69      -2078.4397      19235.319    
    350000   1208.3751     -15580.156     -15242.931     -6511.0782      19300.264    
    351000   1250.0116     -15594.448     -15245.604     -6927.042       19325.359    
    352000   1191.1871     -15569.972     -15237.544     -4034.1909      19321.679    
    353000   1203.0274     -15585.217     -15249.485     -1520.6092      19303.466    
    354000   1190.3792     -15576.503     -15244.301     -1722.1642      19309.156    
    355000   1157.0178     -15567.276     -15244.384     -7708.706       19333.948    
    356000   1227.7288     -15583.778     -15241.152     -11371.403      19377.814    
    357000   1200.7743     -15577.222     -15242.119     -2826.1436      19322.636    
    358000   1233.0193     -15567.049     -15222.947     -2383.0775      19365.212    
    359000   1202.9193     -15586.083     -15250.381     -3742.2612      19336.798    
    360000   1198.9199     -15568.451     -15233.866      964.42775      19325.78     
    361000   1218.2843     -15572.786     -15232.796      3581.7117      19347.617    
    362000   1207.3397     -15553.219     -15216.284      632.48369      19368.639    
    363000   1223.726      -15580.452     -15238.943     -7716.4438      19398.028    
    364000   1234.8456     -15570.485     -15225.874      929.74237      19411.486    
    365000   1232.6062     -15573.289     -15229.302      3533.624       19405.529    
    366000   1217.166      -15558.75      -15219.072      4125.2491      19462.495    
    367000   1222.5735     -15580.438     -15239.251      8737.9041      19430.872    
    368000   1214.5903     -15582.367     -15243.408      3095.3973      19498.359    
    369000   1206.9176     -15579.268     -15242.45       979.89661      19527.312    
    370000   1276.0714     -15557.472     -15201.356      6279.6251      19521.544    
    371000   1240.8986     -15574.176     -15227.875     -4347.7006      19584.471    
    372000   1261.9562     -15571.975     -15219.798      6661.1798      19560.869    
    373000   1295.2093     -15562.653     -15201.195     -4500.7245      19696.803    
    374000   1275.1407     -15561.84      -15205.984      2385.6277      19685.774    
    375000   1240.3557     -15575.676     -15229.527     -11631.516      19766.43     
    376000   1273.5582     -15577.19      -15221.775      13938.366      19686.373    
    377000   1217.8389     -15583.39      -15243.524     -2337.4485      19837.157    
    378000   1280.7427     -15581.092     -15223.671      11496.939      19806.864    
    379000   1242.9553     -15599.613     -15252.738     -125.15344      19911.387    
    380000   1259.3767     -15614.374     -15262.916      2853.3518      19970.085    
    381000   1302.3229     -15611.545     -15248.103      5912.3911      20025.845    
    382000   1280.9204     -15621.463     -15263.994     -3785.5041      20111.715    
    383000   1268.8721     -15646.83      -15292.722      14089.868      20170.258    
    384000   1248.2131     -15652.241     -15303.899      1530.9153      20226.484    
    385000   1247.9596     -15650.811     -15302.539     -2585.3273      20383.387    
    386000   1248.9525     -15702.565     -15354.016     -8890.7787      20418.32     
    387000   1240.7096     -15721.48      -15375.232     -3676.3744      20505.82     
    388000   1300.4558     -15739.73      -15376.809     -1748.2432      20566.798    
    389000   1278.5163     -15779.965     -15423.167      1504.3974      20635.427    
    390000   1291.2536     -15782.583     -15422.23      -2042.7787      20744.488    
    391000   1290.3546     -15811.683     -15451.58      -8557.5079      20766.953    
    392000   1261.8215     -15809.514     -15457.374     -8093.878       20868.476    
    393000   1283.74       -15826.071     -15467.815      3458.6507      20896.303    
    394000   1286.3053     -15835.453     -15476.48      -322.90344      20903.577    
    395000   1251.4811     -15856.53      -15507.276      15763.958      20917.667    
    396000   1276.2417     -15875.226     -15519.062     -4813.6021      21010.573    
    397000   1278.964      -15889.35      -15532.427      11984.21       21109.676    
    398000   1352.2079     -15907.503     -15530.138      934.67967      21177.994    
    399000   1291.3996     -15923.979     -15563.585      2890.2053      21260.217    
    400000   1302.7546     -15958.441     -15594.878      951.71845      21253.211    
    401000   1291.7274     -15957.717     -15597.231     -10791.166      21408.237    
    402000   1260.0909     -15990.38      -15638.723      4648.4305      21461.761    
    403000   1323.5258     -16003.353     -15633.993     -19659.258      21546.789    
    404000   1343.7863     -16015.335     -15640.321      121.09644      21546.755    
    405000   1283.2233     -16037.331     -15679.219     -95.557794      21579.594    
    406000   1293.2161     -16028.069     -15667.168      11.360275      21582.537    
    407000   1282.4279     -16050.11      -15692.22       3836.7141      21656.741    
    408000   1308.9412     -16044.93      -15679.641      11268.519      21639.396    
    409000   1325.6646     -16062.456     -15692.499      23202.333      21684.192    
    410000   1319.5784     -16061.646     -15693.388     -2000.833       21806.17     
    411000   1355.2035     -16079.277     -15701.077     -5937.3073      21749.979    
    412000   1335.2463     -16105.458     -15732.827      18870.748      21775.512    
    413000   1369.2704     -16103.035     -15720.909     -13142.733      21766.593    
    414000   1314.9847     -16114.018     -15747.042      6830.4854      21818.766    
    415000   1322.4578     -16134.043     -15764.981     -7154.5876      21869.596    
    416000   1316.4859     -16137.316     -15769.92       30503.692      21844.221    
    417000   1325.2895     -16152.844     -15782.992     -10009.867      21929.07     
    418000   1338.9788     -16139.477     -15765.805     -3961.6743      21900.25     
    419000   1321.5686     -16167.971     -15799.157      25258.262      21947.978    
    420000   1392.8168     -16153.077     -15764.38      -7845.6104      22016.71     
    421000   1351.9063     -16158.054     -15780.774     -8770.1525      22027.787    
    422000   1335.5772     -16169.327     -15796.604     -427.3375       22054.826    
    423000   1333.0737     -16202.03      -15830.006     -19941.195      22072.363    
    424000   1331.8706     -16184.964     -15813.275     -3936.8055      22096.747    
    425000   1353.0233     -16196.491     -15818.899      588.3133       22005.886    
    426000   1353.8778     -16194.243     -15816.412     -11056.929      22115.395    
    427000   1318.9943     -16192.271     -15824.176     -23220.364      22187.938    
    428000   1332.0991     -16207.787     -15836.035     -685.10339      22114.701    
    429000   1330.0873     -16208.372     -15837.181      1000.7543      22087.582    
    430000   1342.9925     -16204.247     -15829.454      2825.8931      22169.448    
    431000   1329.2259     -16214.226     -15843.275     -20103.973      22252.134    
    432000   1406.7902     -16219.075     -15826.478     -2309.6978      22187.199    
    433000   1368.415      -16217.627     -15835.74       9354.4467      22192.608    
    434000   1359.5063     -16210.465     -15831.063     -5850.5174      22241.618    
    435000   1379.2934     -16227.368     -15842.445     -3752.7111      22188.266    
    436000   1366.1668     -16238.263     -15857.004      11583.195      22201.186    
    437000   1379.5067     -16239.85      -15854.868      18075.685      22127.085    
    438000   1401.1648     -16222.469     -15831.442     -10194.793      22224.742    
    439000   1354.8491     -16227.108     -15849.007     -7089.4531      22127.542    
    440000   1400.4139     -16225.604     -15834.787      13238.292      22219.139    
    441000   1413.2191     -16250.457     -15856.066     -24836.505      22220.012    
    442000   1365.8734     -16236.977     -15855.799      7517.0077      22231.453    
    443000   1378.1063     -16241.769     -15857.178      1422.7792      22205.896    
    444000   1408.7136     -16242.99      -15849.857      473.99062      22157.814    
    445000   1392.9207     -16247.369     -15858.643      2349.9353      22191.491    
    446000   1408.1216     -16236.637     -15843.669     -1916.2525      22210.459    
    447000   1421.6724     -16242.273     -15845.523     -11515.438      22221.994    
    448000   1383.522      -16242.93      -15856.827      3697.3413      22194.081    
    449000   1387.9384     -16247.782     -15860.446     -20610.752      22242.021    
    450000   1383.3227     -16246.87      -15860.823      20766.458      22264.781    
    451000   1393.0654     -16240.077     -15851.311     -3831.6996      22236.642    
    452000   1403.2077     -16243.482     -15851.885      10725.342      22238.358    
    453000   1408.4001     -16247.899     -15854.853     -27169.88       22327.463    
    454000   1458.863      -16237.686     -15830.557      17363.776      22297.622    
    455000   1381.8435     -16246.046     -15860.411     -7892.346       22305.549    
    456000   1411.1486     -16227.158     -15833.345     -4969.7486      22321.838    
    457000   1458.5712     -16245.991     -15838.943      23113.191      22273.112    
    458000   1456.6328     -16237.203     -15830.697     -11499.457      22244.66     
    459000   1426.1141     -16255.64      -15857.651      1501.6285      22347.878    
    460000   1413.1717     -16243.611     -15849.233     -4827.6766      22262.433    
    461000   1402.7226     -16256.573     -15865.111      4932.6111      22282.239    
    462000   1409.8938     -16235.152     -15841.689      1232.9518      22305.837    
    463000   1403.4072     -16248.559     -15856.907     -3664.8155      22330.403    
    464000   1434.7976     -16251.574     -15851.161      4834.2314      22245.248    
    465000   1405.6226     -16248.967     -15856.697     -5038.3393      22264.937    
    466000   1419.8887     -16246.976     -15850.724      8257.1844      22249.086    
    467000   1486.8833     -16247.409     -15832.46      -10386.919      22293.451    
    468000   1428.1428     -16239.994     -15841.439      3698.9676      22307.038    
    469000   1423.4619     -16252.417     -15855.168     -6305.2159      22425.055    
    470000   1500.6292     -16271.036     -15852.252      9103.6677      22258.978    
    471000   1450.7023     -16238.724     -15833.872     -9275.3692      22425.1      
    472000   1419.9597     -16257.305     -15861.033      3642.3912      22330.257    
    473000   1454.4153     -16272.55      -15866.663     -6229.7423      22301.491    
    474000   1507.8794     -16262.269     -15841.461      17452.721      22361.719    
    475000   1456.2353     -16258.456     -15852.061     -8619.3819      22405.19     
    476000   1439.4179     -16258.392     -15856.69      -6013.584       22361.17     
    477000   1451.2184     -16251.469     -15846.473      5851.4834      22351.466    
    478000   1381.9861     -16273.53      -15887.856     -32790.75       22349.501    
    479000   1455.1452     -16277.4       -15871.309      3200.902       22224.109    
    480000   1467.2436     -16265.142     -15855.674      12956.349      22359.9      
    481000   1429.7511     -16246.568     -15847.564     -13884.351      22358.94     
    482000   1427.3401     -16277.417     -15879.085      3708.9211      22255.104    
    483000   1490.5025     -16263.438     -15847.479      8366.0425      22347.661    
    484000   1480.5696     -16245.637     -15832.451     -726.34171      22449.61     
    485000   1444.6231     -16269.23      -15866.076     -6254.5744      22482.437    
    486000   1491.4911     -16259.453     -15843.219      4604.2224      22322.371    
    487000   1471.2464     -16248.692     -15838.107     -20149.388      22405.337    
    488000   1511.7374     -16267.509     -15845.624      9378.5658      22400.842    
    489000   1452.3809     -16259.839     -15854.519      7176.2303      22349.432    
    490000   1467.3833     -16265.671     -15856.165     -701.18393      22441.738    
    491000   1513.2832     -16267.01      -15844.694     -16378.21       22437.763    
    492000   1502.3049     -16264.546     -15845.294      11568.682      22401.775    
    493000   1471.9819     -16304.289     -15893.499     -969.3572       22305.585    
    494000   1461.566      -16268.98      -15861.097     -10708.426      22446.324    
    495000   1567.8113     -16262.627     -15825.093      11232.875      22335.433    
    496000   1482.6771     -16256.623     -15842.849      11970.512      22480.814    
    497000   1508.014      -16271.052     -15850.206     -13872.442      22480.673    
    498000   1487.0502     -16261.935     -15846.94      -1583.3768      22422.106    
    499000   1482.1292     -16275.033     -15861.411      16447.58       22393.496    
    500000   1518.3383     -16277.507     -15853.781     -16966.308      22493.803    
    501000   1487.0406     -16265.846     -15850.854     -11849.53       22448.4      
    502000   1481.9661     -16271.873     -15858.297      3344.2204      22480.847    
    503000   1473.7365     -16272.67      -15861.391     -1734.0845      22494.51     
    504000   1518.7735     -16277.801     -15853.953     -19370.65       22455.664    
    505000   1527.9189     -16261.145     -15834.745     -9159.5382      22375.637    
    506000   1500.6584     -16265.048     -15846.256      15694.929      22418.852    
    507000   1552.8305     -16279.53      -15846.177      3405.8241      22357.479    
    508000   1524.0575     -16284.19      -15858.867      25610.423      22390.335    
    509000   1467.2484     -16265.211     -15855.742     -8824.6056      22421.286    
    510000   1506.4691     -16272.735     -15852.321     -2502.5894      22472.026    
    511000   1521.3143     -16259.502     -15834.945      20116.747      22404.643    
    512000   1525.9086     -16255.77      -15829.93      -24256.437      22465.402    
    513000   1486.6956     -16273.297     -15858.401     -11172.971      22494.779    
    514000   1544.8638     -16265.763     -15834.634      16562.096      22427.161    
    515000   1494.4282     -16281.576     -15864.522      50.488191      22487.321    
    516000   1538.4725     -16250.016     -15820.671     -5589.0692      22525.692    
    517000   1535.9592     -16271.451     -15842.806      3672.5085      22484.706    
    518000   1535.5322     -16255.722     -15827.197      13397.067      22478.815    
    519000   1539.7351     -16263.563     -15833.865     -8351.3887      22517.703    
    520000   1561.2305     -16245.945     -15810.249     -4936.0323      22462.339    
    521000   1502.6072     -16255.69      -15836.353      21705.829      22405.567    
    522000   1522.9138     -16270.564     -15845.56      -7031.8473      22623.427    
    523000   1565.3897     -16237.993     -15801.136     -5161.3912      22534.447    
    524000   1512.3257     -16260.427     -15838.379      15769.083      22465.892    
    525000   1551.9476     -16254.537     -15821.431     -11562.525      22564.436    
    526000   1541.8796     -16250.134     -15819.837     -10871.526      22601.16     
    527000   1557.7105     -16267.623     -15832.908      2130.0832      22574.426    
    528000   1582.3546     -16268.716     -15827.124     -12419.849      22561.113    
    529000   1540.8922     -16260.039     -15830.018     -11403.092      22634.64     
    530000   1550.4736     -16252.627     -15819.932     -10563.413      22559.662    
    531000   1578.7298     -16273.533     -15832.953      14728.338      22490.008    
    532000   1558.1674     -16273.659     -15838.817      12201.574      22560.9      
    533000   1569.8714     -16272.101     -15833.993      4229.7941      22614.872    
    534000   1603.1738     -16270.9       -15823.498     -10749.855      22564.524    
    535000   1569.5628     -16257.295     -15819.273     -3295.1999      22525.454    
    536000   1545.4794     -16273.59      -15842.289     -3122.8364      22514.904    
    537000   1600.1509     -16257.611     -15811.052      2636.236       22515.539    
    538000   1567.9624     -16269.858     -15832.282      16333.505      22477.605    
    539000   1573.1068     -16267.37      -15828.359     -5094.3364      22565.459    
    540000   1569.1466     -16264.004     -15826.098      6603.0879      22626.338    
    541000   1617.574      -16275.703     -15824.283     -9898.137       22544.94     
    542000   1599.5546     -16251.043     -15804.652     -23406.821      22606.091    
    543000   1575.1574     -16263.604     -15824.021     -10652.882      22622.465    
    544000   1597.8783     -16282.111     -15836.186      3020.4021      22479.884    
    545000   1584.6163     -16269.788     -15827.564     -3994.7323      22549.442    
    546000   1619.8047     -16276.577     -15824.534     -5977.3762      22587.831    
    547000   1620.9834     -16273.309     -15820.937     -2459.7107      22490.099    
    548000   1647.9094     -16267.076     -15807.189      300.50467      22623.082    
    549000   1607.663      -16259.68      -15811.025      4171.0604      22633.133    
    550000   1642.6533     -16271.478     -15813.059     -8941.3399      22707.265    
    551000   1615.3961     -16269.603     -15818.79      -7688.1462      22608.515    
    552000   1618.3239     -16268.474     -15816.844      1923.9067      22555.829    
    553000   1615.0897     -16261.749     -15811.021     -5515.4442      22646.161    
    554000   1601.4743     -16259.074     -15812.146     -988.63856      22654.779    
    555000   1617.5288     -16279.826     -15828.418      15072.858      22527.145    
    556000   1657.6722     -16268.963     -15806.352     -879.90696      22608.314    
    557000   1620.5436     -16282.881     -15830.632      4266.5442      22515.56     
    558000   1674.7403     -16267.816     -15800.442      254.54425      22560.285    
    559000   1603.4455     -16259.126     -15811.649     -10724.679      22570.279    
    560000   1627.1528     -16251.98      -15797.886     -2534.2666      22602.057    
    561000   1638.1036     -16263.04      -15805.89      -4455.2989      22603.883    
    562000   1612.248      -16260.178     -15810.244      695.59818      22595.588    
    563000   1626.6963     -16256.23      -15802.264     -6854.3481      22605.058    
    564000   1677.7973     -16254.836     -15786.609      3231.2869      22622.17     
    565000   1659.8026     -16283.633     -15820.428      13206.763      22519.816    
    566000   1634.8236     -16255.535     -15799.3        32123.335      22565.112    
    567000   1656.368      -16256.661     -15794.414     -7138.7139      22616.926    
    568000   1613.8358     -16260.257     -15809.88      -8854.6709      22672.817    
    569000   1603.5812     -16246.005     -15798.489      1729.3816      22585.708    
    570000   1656.7374     -16265.315     -15802.965     -6081.2085      22671.234    
    571000   1619.9264     -16256.172     -15804.095     -10375.207      22692.537    
    572000   1644.5731     -16271.623     -15812.668      6052.2725      22710.353    
    573000   1650.5841     -16251.817     -15791.184      23616.667      22667.352    
    574000   1660.3677     -16265.256     -15801.892      17280.106      22615.461    
    575000   1665.868      -16253.373     -15788.474      278.4165       22664.12     
    576000   1635.9818     -16268.913     -15812.355     -12364.925      22739.705    
    577000   1659.5501     -16265.594     -15802.459     -8553.7258      22703.806    
    578000   1766.7333     -16270.947     -15777.9       -6888.7207      22649.43     
    579000   1639.9891     -16241.095     -15783.419     -18456.762      22698.481    
    580000   1628.2618     -16277.018     -15822.614     -6392.4584      22642.072    
    581000   1649.1244     -16254.597     -15794.372     -3049.8413      22594.611    
    582000   1691.7242     -16227.89      -15755.777     -7313.2601      22636.211    
    583000   1625.0161     -16248.078     -15794.58      -26945.171      22647.956    
    584000   1682.8323     -16247.566     -15777.933     -7486.6321      22631.544    
    585000   1722.6568     -16253.366     -15772.619      7499.9961      22600.859    
    586000   1683.258      -16259.202     -15789.451      867.03692      22636.903    
    587000   1656.9634     -16255.388     -15792.974      5431.9804      22698.948    
    588000   1714.274      -16239.794     -15761.387      18317.703      22732.592    
    589000   1674.0382     -16256.811     -15789.632      8971.5958      22711.071    
    590000   1648.9096     -16257.94      -15797.775      9694.4391      22662.186    
    591000   1668.0614     -16265.367     -15799.856      14534.272      22687.688    
    592000   1696.1338     -16262.073     -15788.728      28443.74       22648.175    
    593000   1622.4512     -16254.966     -15802.184      4366.8535      22686.417    
    594000   1709.4877     -16244.61      -15767.539      19426.44       22714.437    
    595000   1682.3339     -16249.787     -15780.294      14125.133      22695.105    
    596000   1749.6918     -16257.164     -15768.873      17728.451      22676.864    
    597000   1664.1401     -16275.293     -15810.877      7569.4731      22815.561    
    598000   1681.5798     -16255.341     -15786.058      2819.6775      22755.906    
    599000   1670.957      -16245.145     -15778.827     -17277.778      22745.693    
    600000   1704.0913     -16248.166     -15772.6       -12594.322      22705.718    
    601000   1718.2681     -16259.672     -15780.151     -4652.5991      22795.678    
    602000   1731.588      -16254.478     -15771.239      4537.0983      22768.327    
    603000   1641.4386     -16238.314     -15780.234     -762.77363      22769.517    
    604000   1721.2545     -16258.339     -15777.983     -14955.952      22771.819    
    605000   1701.4874     -16257.497     -15782.658     -23975.463      22691.758    
    606000   1707.4695     -16244.201     -15767.693     -1814.2255      22790.469    
    607000   1692.7432     -16273.339     -15800.941     -1870.8951      22712.137    
    608000   1719.6536     -16243.081     -15763.172      9412.6489      22732.931    
    609000   1747.6692     -16244.257     -15756.53      -893.13197      22809.991    
    610000   1734.2658     -16221.92      -15737.934      847.82812      22736.102    
    611000   1756.446      -16239.911     -15749.735      32251.228      22749.673    
    612000   1681.662      -16254.07      -15784.764      15765.3        22758.684    
    613000   1692.8588     -16225.607     -15753.176      9154.0463      22816.339    
    614000   1736.0706     -16248.668     -15764.178      22040.235      22735.097    
    615000   1688.6794     -16249.068     -15777.803      22893.669      22725.64     
    616000   1740.482      -16242.559     -15756.838      14903.865      22754.451    
    617000   1725.168      -16245.635     -15764.188      16499.265      22809.183    
    618000   1753.8358     -16226.051     -15736.603      22277.656      22850.521    
    619000   1759.4808     -16228.848     -15737.825      4339.0038      22830.667    
    620000   1705.0882     -16259.484     -15783.64       13859.982      22781.391    
    621000   1756.4338     -16249.808     -15759.635      12542.802      22768.888    
    622000   1750.6906     -16242.604     -15754.034      17850.143      22743.55     
    623000   1741.3096     -16254.335     -15768.383      16403.003      22828.153    
    624000   1751.1449     -16227.677     -15738.981      13714.993      22796.23     
    625000   1753.8517     -16241.757     -15752.305      39294.409      22713.307    
    626000   1790.2087     -16252.762     -15753.164      14532.651      22832.776    
    627000   1780.7707     -16266.615     -15769.65       19675.107      22748.625    
    628000   1739.9978     -16247.676     -15762.09       14766.716      22786.906    
    629000   1742.2483     -16234.888     -15748.674      1113.1793      22863.857    
    630000   1747.7094     -16257.639     -15769.901      27892.674      22863.068    
    631000   1750.3374     -16237.877     -15749.406      12369.788      22813.676    
    632000   1786.8899     -16251.609     -15752.937      5836.4365      22776.927    
    633000   1812.9922     -16234.011     -15728.054      650.94824      22800.424    
    634000   1791.0017     -16258.351     -15758.531     -9673.5242      22827.448    
    635000   1789.795      -16233.326     -15733.844     -12744.616      22906.382    
    636000   1785.83       -16254.257     -15755.881     -7603.6838      22770.754    
    637000   1789.962      -16243.126     -15743.597     -2702.1294      22849.701    
    638000   1778.5913     -16239.515     -15743.158      5181.0072      22798.978    
    639000   1741.6368     -16242.723     -15756.68       6590.7199      22810.966    
    640000   1799.1023     -16241.353     -15739.273      21814.354      22816.603    
    641000   1808.3695     -16233.285     -15728.619      15938.098      22766.223    
    642000   1817.2144     -16249.612     -15742.478      8535.5966      22825.064    
    643000   1854.793      -16253.939     -15736.317      20465.347      22737.277    
    644000   1796.8594     -16248.877     -15747.423      27062.014      22761.92     
    645000   1774.8812     -16237.687     -15742.366      18488.126      22860.21     
    646000   1795.3876     -16235.961     -15734.917      9547.9192      22824.773    
    647000   1844.8584     -16244.69      -15729.84       28086.704      22774.774    
    648000   1824.5657     -16230.704     -15721.518      28400.24       22759.317    
    649000   1804.8387     -16229.933     -15726.252      13897.042      22843.521    
    650000   1810.8204     -16235.31      -15729.96       13971.234      22793.533    
    651000   1800.0075     -16209.616     -15707.283      47003.394      22731.951    
    652000   1784.9458     -16230.463     -15732.334      20415.533      22802.174    
    653000   1778.3877     -16209.09      -15712.791      8936.0627      22756.61     
    654000   1795.6283     -16247.283     -15746.172      4112.253       22734.755    
    655000   1786.5497     -16234.806     -15736.229     -3984.5715      22839.802    
    656000   1805.2173     -16244.756     -15740.969     -784.31361      22828.885    
    657000   1772.7592     -16232.643     -15737.914     -700.05096      22865.24     
    658000   1784.2446     -16224.875     -15726.941     -11009.174      22849.683    
    659000   1858.8651     -16241.769     -15723.01      -8327.7735      22787.367    
    660000   1818.1672     -16226.681     -15719.281     -9678.4485      22785.265    
    661000   1794.8203     -16237.471     -15736.585     -12058.378      22842.328    
    662000   1800.8629     -16246.599     -15744.028      1406.2487      22779.364    
    663000   1856.2229     -16247.397     -15729.376      14072.41       22859.637    
    664000   1877.937      -16247.816     -15723.735      27509.961      22777.211    
    665000   1814.5595     -16235.952     -15729.558      12996.143      22839.427    
    666000   1772.3664     -16230.284     -15735.665     -2749.0813      22864.168    
    667000   1816.9546     -16218.926     -15711.864     -22965.879      22881.197    
    668000   1854.1845     -16237.275     -15719.823     -15899.695      22821.419    
    669000   1856.7553     -16239.686     -15721.516     -15233.799      22890.774    
    670000   1848.3186     -16249.548     -15733.733     -14314.402      22926.169    
    671000   1830.5839     -16228.699     -15717.833     -11188.013      22905.681    
    672000   1880.4093     -16230.624     -15705.853     -15866.686      23012.196    
    673000   1828.7094     -16229.686     -15719.344      3242.4518      22844.496    
    674000   1880.0809     -16215.343     -15690.664      8161.4775      22945.768    
    675000   1847.787      -16219.783     -15704.116      19738.288      22936.496    
    676000   1830.4735     -16225.9       -15715.065      12364.189      22990.002    
    677000   1860.5763     -16212.624     -15693.388      325.17729      22861.554    
    678000   1881.9296     -16223.452     -15698.257     -219.55311      23008.076    
    679000   1885.5506     -16232.979     -15706.774      2379.2254      22824.848    
    680000   1832.8989     -16213.424     -15701.912     -4463.0948      22976.146    
    681000   1879.9485     -16196.883     -15672.241     -1966.6503      22875.546    
    682000   1860.4474     -16205.944     -15686.744      12287.05       22967.819    
    683000   1890.2797     -16231.614     -15704.089      17093.005      22932.432    
    684000   1860.7011     -16214.003     -15694.732      1770.7173      22881.609    
    685000   1912.6411     -16204.445     -15670.679     -12951.97       22956.96     
    686000   1872.394      -16221.662     -15699.128     -32626.035      22901.294    
    687000   1939.414      -16242.637     -15701.399     -12932.599      22887.127    
    688000   1860.2585     -16231.038     -15711.891     -6678.5481      22862.489    
    689000   1918.6528     -16223.02      -15687.577     -16147.122      22985.914    
    690000   1869.4768     -16240.905     -15719.185     -14473.935      22898.64     
    691000   1924.5573     -16238.2       -15701.109     -709.89907      22944.92     
    692000   1931.579      -16206.638     -15667.587      2145.7518      23034.989    
    693000   1883.9236     -16236.28      -15710.529     -547.65438      22994.584    
    694000   1887.6969     -16217.413     -15690.608     -5868.2726      22997.659    
    695000   1811.6238     -16208.583     -15703.008     -6678.9771      22952.242    
    696000   1900.0264     -16203.968     -15673.723     -20521.165      22970.446    
    697000   1882.3824     -16201.914     -15676.592     -15758.643      22950.158    
    698000   1907.8612     -16198.773     -15666.341     -10014.376      22995.508    
    699000   1901.0373     -16193.866     -15663.339     -796.78757      22981.28     
    700000   1933.1207     -16216.775     -15677.294      2416.6424      22887.018    
    701000   1942.9276     -16188.776     -15646.558      2124.6292      22929.902    
    702000   1911.9173     -16194.276     -15660.712      12354.941      22945.181    
    703000   1910.9001     -16201.281     -15668.001     -179.41122      22932.307    
    704000   1860.1139     -16186.782     -15667.676      6845.3256      22950.958    
    705000   1916.6546     -16197.537     -15662.651     -10513.189      22976.832    
    706000   1977.2173     -16220.857     -15669.07      -5298.2665      22995.604    
    707000   1952.7555     -16219.24      -15674.28      -3983.8936      22984.797    
    708000   1915.089      -16205.106     -15670.657      4026.0463      23006.064    
    709000   1977.831      -16211.556     -15659.598      6213.5546      22885.602    
    710000   1918.4225     -16201.921     -15666.541      11977.424      22880.39     
    711000   1913.1595     -16210.781     -15676.87       8986.4447      22929.089    
    712000   1956.1308     -16182.45      -15636.547      5273.8615      22970.652    
    713000   1926.9496     -16215.708     -15677.949      10463.897      22991.753    
    714000   1962.9438     -16208.296     -15660.492     -2605.3827      22917.318    
    715000   1967.8988     -16195.909     -15646.722      20275.016      22960.623    
    716000   1914.6223     -16203.56      -15669.241      9247.9677      22979.252    
    717000   1937.3719     -16223.438     -15682.77       2441.6224      22967.7      
    718000   1944.5241     -16192.964     -15650.301      1889.0454      23018.197    
    719000   1960.7403     -16237.434     -15690.245      5383.5382      22999.994    
    720000   1941.8045     -16206.028     -15664.124      1216.1217      22928.254    
    721000   1955.437      -16198.969     -15653.26       11572.779      22992.005    
    722000   1949.0973     -16209.58      -15665.64       19807.03       22902.828    
    723000   1902.6748     -16188.282     -15657.297      34805.618      22937.14     
    724000   1929.9007     -16195.109     -15656.526      17030.954      22868.553    
    725000   1940.2998     -16192.392     -15650.907      9648.0479      22903.134    
    726000   1914.8774     -16170.824     -15636.434      1484.3382      22982.916    
    727000   2005.3451     -16196.114     -15636.477     -10627.366      23084.718    
    728000   1973.1207     -16197.616     -15646.972     -11684.621      23106.009    
    729000   1956.9128     -16183.528     -15637.407      284.50661      23070.055    
    730000   2004.0044     -16167.466     -15608.203     -3006.2601      23098.546    
    731000   2019.1483     -16173.063     -15609.574     -4373.9451      22963.71     
    732000   1983.1003     -16184.866     -15631.437     -16875.45       23014.173    
    733000   1923.4697     -16176.944     -15640.156     -15827.48       23086.653    
    734000   1986.7204     -16194.978     -15640.538     -2093.793       22961.689    
    735000   1934.3947     -16183.071     -15643.235     -15854.132      23011.287    
    736000   1939.1756     -16179.166     -15637.996     -21503.877      22965.505    
    737000   1988.6711     -16200.875     -15645.891      359.88566      23005.896    
    738000   1961.8649     -16169.746     -15622.243     -4364.8178      23001.657    
    739000   2003.2805     -16187.47      -15628.409     -12384.418      23030.955    
    740000   1988.5575     -16183.721     -15628.769     -7886.5577      23064.912    
    741000   2004.7274     -16209.512     -15650.047     -1159.3029      22890.645    
    742000   1992.1482     -16181.477     -15625.522     -4150.5491      23103.1      
    743000   1918.2896     -16186.439     -15651.097      10475.601      23019.287    
    744000   2008.9269     -16198.319     -15637.682      18814.847      23044.558    
    745000   1950.9946     -16190.586     -15646.117      4868.2281      23057.135    
    746000   2010.4442     -16199.411     -15638.351     -12950.662      23102.831    
    747000   2027.6886     -16190.813     -15624.941     -5224.8004      23005.413    
    748000   2037.0252     -16167.752     -15599.274      17484.499      23036.01     
    749000   2025.0472     -16173.13      -15607.994      16873.648      23065.205    
    750000   1972.2143     -16139.852     -15589.461      5148.2068      23016.472    
    751000   2050.9813     -16192.088     -15619.715      3379.9955      22975.384    
    752000   1963.9499     -16180.844     -15632.759     -10488.063      23072.03     
    753000   2026.1583     -16170.133     -15604.688     -4597.4973      23167.801    
    754000   1990.0053     -16176.483     -15621.127      6688.5657      23017.384    
    755000   1995.4411     -16194.36      -15637.487     -14650.549      23017.249    
    756000   1974.0355     -16185.529     -15634.629     -9509.3885      23018.139    
    757000   1982.6183     -16166.204     -15612.91       1803.7555      23103.194    
    758000   1994.1131     -16168.158     -15611.655      13926.354      23096.906    
    759000   2043.0872     -16181.802     -15611.632      5385.5329      23115.295    
    760000   2012.0766     -16158.771     -15597.255     -6615.1701      23149.472    
    761000   2032.8268     -16174.844     -15607.538     -3294.2187      23098.285    
    762000   2039.5238     -16194.819     -15625.644     -3581.8193      23143.514    
    763000   2047.489      -16181.561     -15610.162     -8279.834       23037.079    
    764000   2063.6829     -16180.169     -15604.251     -6114.1904      23178.039    
    765000   2073.2353     -16168.54      -15589.956     -1651.6694      23015.258    
    766000   2106.1465     -16153.674     -15565.906     -21670.618      23151.923    
    767000   2028.0718     -16182.59      -15616.61      -4776.4077      23067.268    
    768000   2048.5749     -16171.165     -15599.463      3773.0626      23057.929    
    769000   1995.3188     -16162.687     -15605.849      10490.979      23162.064    
    770000   2020.6593     -16183.615     -15619.704      9500.6509      23093.951    
    771000   2045.6539     -16180.569     -15609.683      5853.7822      23029.543    
    772000   2056.1163     -16189.873     -15616.067      26419.639      22956.922    
    773000   2036.9183     -16198.986     -15630.538      7162.837       22974.953    
    774000   2019.6843     -16152.843     -15589.204      595.66923      23093.977    
    775000   2024.3297     -16171.823     -15606.888      13519.767      23051.719    
    776000   2001.843      -16172.035     -15613.376      8392.7137      23201.53     
    777000   2060.3694     -16177.126     -15602.133      7928.5215      23075.973    
    778000   2095.5043     -16154.372     -15569.574      10531.533      23234.884    
    779000   2059.6296     -16160.192     -15585.406      8374.6467      23211.187    
    780000   2058.8958     -16161.169     -15586.588     -13745.322      23270        
    781000   2101.4298     -16184.759     -15598.308     -16947.952      23089.447    
    782000   2027.3693     -16154.727     -15588.944     -1161.4003      23189.503    
    783000   2049.1945     -16170.051     -15598.177      17147.538      23181.996    
    784000   2113.2183     -16178.363     -15588.621      28487.488      23104.381    
    785000   2073.1459     -16166.744     -15588.185      9885.6908      23057.8      
    786000   2089.0942     -16164.594     -15581.585      7491.0463      23130.276    
    787000   2115.5917     -16176.739     -15586.335      21868.566      23055.029    
    788000   2131.568      -16193.667     -15598.805      4065.8762      23170.352    
    789000   2076.431      -16183.02      -15603.545      21812.373      23120.476    
    790000   2071.884      -16175.802     -15597.596      6866.1002      23049.766    
    791000   2107.0377     -16150.953     -15562.937      226.38168      23172.506    
    792000   2065.7849     -16160.894     -15584.39       6429.8843      23177.82     
    793000   2073.4242     -16142.819     -15564.183      1568.7753      23116.986    
    794000   2064.9459     -16153.658     -15577.388     -13153.165      23089.009    
    795000   2049.1495     -16146.222     -15574.36      -11957.885      23166.608    
    796000   2111.9893     -16142.005     -15552.607     -18728.564      23218.432    
    797000   2048.2007     -16143.828     -15572.232     -23655.759      23165.476    
    798000   2074.3242     -16147.31      -15568.423     -14042.584      23106.228    
    799000   2061.3696     -16163.525     -15588.253     -4981.0348      23042.897    
    800000   2114.7507     -16183.554     -15593.385     -18545.084      23027.913    
    801000   2115.2015     -16166.668     -15576.373     -16665.39       23086.929    
    802000   2042.511      -16148.195     -15578.186     -6067.1271      23076.466    
    803000   2078.7798     -16143.245     -15563.114     -8859.4183      23160.967    
    804000   2081.6409     -16136.004     -15555.075     -40334.943      23134.954    
    805000   2158.585      -16162.13      -15559.728     -253.01599      23066.347    
    806000   2078.8616     -16134.78      -15554.626     -5212.0502      23164.758    
    807000   2089.431      -16116.606     -15533.503     -16255.758      23159.799    
    808000   2133.8983     -16148.871     -15553.359      6993.9658      23168.593    
    809000   2156.0393     -16166.624     -15564.932      19705.556      23092.31     
    810000   2091.2001     -16167.076     -15583.479      25323.868      23039.301    
    811000   2141.7666     -16134.32      -15536.612      29502.763      23202.426    
    812000   2134.2794     -16161.57      -15565.951      11560.893      23279.21     
    813000   2074.6656     -16146.247     -15567.264      11025.474      23181.149    
    814000   2144.9158     -16129.488     -15530.901     -17344.045      23283.704    
    815000   2111.2063     -16143.807     -15554.627      5735.8063      23177.051    
    816000   2167.4079     -16119.797     -15514.933      10479.16       23222.828    
    817000   2154.9746     -16147.601     -15546.207      5429.9092      23133.415    
    818000   2109.4952     -16128.021     -15539.318      13436.208      23183.088    
    819000   2139.2293     -16121.246     -15524.245      13750.792      23194.888    
    820000   2198.5375     -16149.755     -15536.203      9946.6896      23204.503    
    821000   2099.6477     -16162.579     -15576.624      6314.8464      23192.765    
    822000   2154.9335     -16152.192     -15550.809      9038.8011      23204.955    
    823000   2140.6714     -16138.46      -15541.057      10032.566      23202.572    
    824000   2095.1847     -16116.469     -15531.761      3186.274       23212.473    
    825000   2092.4941     -16135.887     -15551.929      2875.0657      23262.682    
    826000   2107.0199     -16123.748     -15535.737      11317.403      23263.239    
    827000   2133.8819     -16128.612     -15533.104     -1902.4598      23209.579    
    828000   2145.1785     -16139.051     -15540.39      -6517.5125      23238.633    
    829000   2207.3242     -16148.687     -15532.683     -10251.951      23207.354    
    830000   2080.5403     -16116.739     -15536.117     -18504.337      23272.997    
    831000   2105.4863     -16152.489     -15564.906     -15726.867      23161.612    
    832000   2119.7884     -16150.859     -15559.284     -17863.22       23195.959    
    833000   2209.4272     -16133.915     -15517.324      15991.868      23183.443    
    834000   2126.9538     -16150.366     -15556.791      16755.026      23240.198    
    835000   2131.7141     -16139.719     -15544.816      5962.1011      23275.552    
    836000   2178.7861     -16122.049     -15514.009     -2015.9446      23306.741    
    837000   2218.7202     -16117.232     -15498.048     -2211.6279      23239.215    
    838000   2165.4038     -16117.977     -15513.672     -19269.135      23401.786    
    839000   2129.2412     -16155.013     -15560.8       -11524.277      23340.026    
    840000   2141.7715     -16128.138     -15530.428     -23118.637      23406.662    
    841000   2188.2096     -16119.111     -15508.441     -21603.747      23378.494    
    842000   2137.7071     -16119.47      -15522.894     -14468.023      23352.091    
    843000   2211.5951     -16128.464     -15511.268      4382.9955      23272.215    
    844000   2183.7924     -16114.002     -15504.565      36396.442      23305.269    
    845000   2226.1413     -16109.758     -15488.503      4970.6116      23265.21     
    846000   2152.3157     -16113.548     -15512.896      19637.123      23097.171    
    847000   2223.3348     -16118.773     -15498.301      31622.309      23214.671    
    848000   2256.1631     -16130.3       -15500.667      22803.788      23261.307    
    849000   2148.3618     -16119.825     -15520.276      13775.378      23208.502    
    850000   2191.7283     -16120.829     -15509.177      8491.2849      23283.152    
    851000   2264.0367     -16160.875     -15529.044      30958.37       23086.457    
    852000   2242.0752     -16114.809     -15489.107      10046.229      23235.29     
    853000   2183.8437     -16108.822     -15499.371      13385.999      23261.978    
    854000   2228.6654     -16125.722     -15503.762      8961.7176      23216.023    
    855000   2244.3072     -16102.548     -15476.223      10519.27       23283.34     
    856000   2182.4725     -16112.303     -15503.234      14150.288      23200.25     
    857000   2265.5498     -16097.906     -15465.653     -2985.672       23180.682    
    858000   2281.3954     -16097.079     -15460.404     -3312.0837      23244.514    
    859000   2166.1147     -16125.022     -15520.519     -12127.287      23222.608    
    860000   2218.8087     -16109.837     -15490.628     -6329.399       23279.469    
[...]
   1788000   4107.1432     -15083.018     -13936.827     -17827.667      24869.355    
   1789000   4136.1401     -15062.978     -13908.694      35800.275      24755.937    
   1790000   4054.8503     -15022.521     -13890.923      8521.1154      24870.909    
   1791000   4176.1431     -15057.512     -13892.064      19876.595      24732.07     
   1792000   3964.8669     -15058.53      -13952.044      27522.626      24749.712    
   1793000   4102.8456     -15113.215     -13968.223     -2674.9937      24702.239    
   1794000   3992.4187     -15048.461     -13934.286     -15163.471      24829.329    
   1795000   4079.0703     -15070.121     -13931.764      8297.4429      24823.797    
   1796000   4197.8908     -15074.242     -13902.725     -10641.96       24839.375    
   1797000   4209.9604     -15045.188     -13870.304      6054.5741      24964.207    
   1798000   4093.1186     -15071.198     -13928.92      -13869.85       24953.425    
   1799000   4051.7782     -15063.406     -13932.665     -28732.182      24667.73     
   1800000   4040.0305     -15073.528     -13946.066     -19058.153      24778.124    
   1801000   4119.9678     -15056.384     -13906.614      17497.27       24551.148    
   1802000   4210.8094     -15034.303     -13859.181      24713.805      24731.396    
   1803000   4080.8301     -15054.813     -13915.965     -11015.198      24736.572    
   1804000   4120.0522     -15071.344     -13921.55      -11532.525      24831.811    
   1805000   4011.5141     -15089.219     -13969.715     -10304.319      24863.122    
   1806000   4120.1808     -15095.753     -13945.923     -10221.528      24864.399    
   1807000   4045.7312     -15080.748     -13951.695     -469.96356      24832.763    
   1808000   3996.5716     -15047.964     -13932.631      112.15412      24906.766    
   1809000   4109.9705     -15008.327     -13861.347      2217.7746      24890.298    
   1810000   4111.1737     -15108.954     -13961.638     -5873.0093      24607.551    
   1811000   4123.0607     -15074.027     -13923.393     -166.35587      24676.842    
   1812000   4251.4299     -15091.917     -13905.46      -10708.023      24720        
   1813000   4151.0298     -15057.066     -13898.627     -17596.57       24756.09     
   1814000   4244.3024     -15019.85      -13835.382     -14569.272      24988.654    
   1815000   4162.0216     -15105.363     -13943.856      7456.3996      24802.355    
   1816000   4182.9784     -15054.686     -13887.331      824.72881      24760.934    
   1817000   4098.9777     -15076.694     -13932.781     -15582.272      24832.915    
   1818000   4002.6186     -15061.392     -13944.371      39475.779      24589.966    
   1819000   4233.2032     -15053.104     -13871.733     -815.73931      24918.779    
   1820000   4155.5193     -15010.597     -13850.905     -42386.955      25099.191    
   1821000   4093.922      -15076.23      -13933.728     -10340.822      24939.865    
   1822000   4068.7336     -15071.858     -13936.385     -9749.2026      24961.073    
   1823000   4056.2387     -15030.313     -13898.328      5518.0272      25019.673    
   1824000   4142.3006     -15015.714     -13859.712      29379.053      24854.601    
   1825000   4074.9641     -15063.131     -13925.92       24559.737      24815.813    
   1826000   4245.725      -15011.942     -13827.077     -3092.8734      24893.625    
   1827000   4291.8394     -15046.198     -13848.463     -6188.5773      24892.528    
   1828000   4308.406      -15033.494     -13831.136      33737.721      24900.05     
   1829000   4220.2207     -15008.791     -13831.043      10005.051      24939.301    
   1830000   4168.2024     -14986.86      -13823.628      19774.644      24939.47     
   1831000   4238.2019     -15076.564     -13893.798     -25415.524      24774.992    
   1832000   4114.841      -15061.841     -13913.501      1938.3166      24614.956    
   1833000   4204.8223     -15097.533     -13924.082      4804.3768      24571.814    
   1834000   4057.835      -15011.84      -13879.409     -13297.54       24768.598    
   1835000   4209.3243     -15058         -13883.292     -20785.189      24918.115    
   1836000   4135.4009     -15024.326     -13870.249     -28403.869      24820.314    
   1837000   4203.331      -15024.045     -13851.011      2011.0493      24632        
   1838000   4094.2089     -15018.436     -13875.854     -122.30945      24777.382    
   1839000   4299.0145     -15058.623     -13858.886      8464.4544      24710.691    
   1840000   4203.2222     -15033.048     -13860.044     -13484.66       24691.956    
   1841000   4167.4276     -14973.094     -13810.079     -8038.9454      24898.034    
   1842000   4303.8336     -14994.435     -13793.353     -16899.078      24785.703    
   1843000   4134.4644     -15012.231     -13858.415     -5428.6058      24658.915    
   1844000   4171.8799     -15006.28      -13842.022     -15117.763      24842.383    
   1845000   4266.0767     -14996.74      -13806.194      30317.035      24838.27     
   1846000   4251.0132     -15041.231     -13854.89       16906.927      24727.599    
   1847000   4269.449      -14968.687     -13777.201      22397.206      24688.519    
   1848000   4281.2027     -15012.457     -13817.69       6801.3393      25045.007    
   1849000   4105.9403     -14978.872     -13833.016     -10142.541      25080.209    
   1850000   4230.9049     -15016.701     -13835.972     -3715.9344      24907.083    
   1851000   4226.6918     -14999.699     -13820.145      7067.3949      24963.366    
   1852000   4255.9973     -15016.937     -13829.205     -2450.5024      25046.481    
   1853000   4099.4421     -15040.412     -13896.37      -1115.9799      24987.513    
   1854000   4170.5434     -15025.142     -13861.257     -10710.998      24912.22     
   1855000   4240.9588     -14989.319     -13805.783      4504.6441      24988.549    
   1856000   4191.9352     -14959.601     -13789.746      1070.5478      25056.612    
   1857000   4228.9269     -15033.302     -13853.124     -25749.165      24994.09     
   1858000   4165.762      -15041.587     -13879.037     -18254.326      25128.194    
   1859000   4280.7085     -15022.638     -13828.009      10058.098      25430.286    
   1860000   4241.6624     -15074.501     -13890.769      13592.756      25325.713    
   1861000   4255.7335     -15029.223     -13841.564     -11098.334      25224.902    
   1862000   4194.4606     -14971.694     -13801.135     -8181.8775      25222.523    
   1863000   4198.9505     -15040.331     -13868.519     -9026.5628      25204.946    
   1864000   4225.906      -15032.373     -13853.038      5502.0094      25286.501    
   1865000   4300.0537     -14972.092     -13772.065     -24390.18       25241.93     
   1866000   4121.6485     -15037.995     -13887.756      20118.051      24833.226    
   1867000   4192.7413     -14999.493     -13829.414      13819.814      24975.36     
   1868000   4113.2592     -15036.809     -13888.911      25968.534      25016.575    
   1869000   4261.5658     -14988.618     -13799.331      4276.3824      24945.653    
   1870000   4043.4374     -15005.832     -13877.419     -13825.864      25169.425    
   1871000   4293.2402     -14963.56      -13765.434      4551.1954      25187.685    
   1872000   4204.2126     -14970.391     -13797.11       553.85291      24934.219    
   1873000   4377.8994     -14951.832     -13730.08       10913.216      25056.351    
   1874000   4366.3174     -14946.153     -13727.633     -19.186176      25154.141    
   1875000   4216.7865     -14976.053     -13799.263     -20652.47       24960.049    
   1876000   4227.3796     -14998.548     -13818.802     -10595.059      25041.625    
   1877000   4272.7225     -15001.965     -13809.565     -10277.824      24942.977    
   1878000   4170.5177     -14990.942     -13827.065      2421.0558      25046.36     
   1879000   4301.9168     -15007.382     -13806.835      6048.3279      25009.286    
   1880000   4182.1304     -14982.659     -13815.54       1035.0182      25125.427    
   1881000   4177.7205     -15034.834     -13868.946     -4885.1527      24959.581    
   1882000   4093.4506     -14981.81      -13839.44       3657.8933      24835.961    
   1883000   4284.1737     -15018.301     -13822.706      10108.729      24891.81     
   1884000   4213.6693     -15003.754     -13827.834     -1411.4134      24881.945    
   1885000   4374.3387     -14955.258     -13734.5       -13845.409      25016.08     
   1886000   4141.4936     -14986.487     -13830.71       3675.4114      24798.007    
   1887000   4245.7359     -14984.824     -13799.955      14938.385      24807.568    
   1888000   4317.7828     -14954.881     -13749.906     -44288.018      24942.85     
   1889000   4244.6942     -14920.366     -13735.788     -16772.968      24946.565    
   1890000   4334.3063     -15008.586     -13798.999     -2943.872       24771.798    
   1891000   4317.6602     -14972.322     -13767.381      49039.78       24818.83     
   1892000   4411.3869     -14975.94      -13744.843      5645.1498      24929.988    
   1893000   4363.6741     -14989.469     -13771.687      3583.4042      24925.634    
   1894000   4270.1759     -14977.998     -13786.309      23225.017      24866.073    
   1895000   4278.0812     -14981.592     -13787.697     -7287.0491      24905.708    
   1896000   4312.4644     -14972.089     -13768.598      17220.575      24745.398    
   1897000   4251.3142     -14941.9       -13755.474      3539.2504      24899.823    
   1898000   4247.9463     -14968.848     -13783.362      25052.397      24907.819    
   1899000   4250.4215     -14998.994     -13812.817     -14530.184      24854.897    
   1900000   4244.7511     -14974.611     -13790.017     -7344.4482      25064.25     
   1901000   4200.834      -14975.673     -13803.335     -2914.4302      25029.749    
   1902000   4288.5038     -14988.947     -13792.143     -18340.81       24967.793    
   1903000   4321.8137     -15015.413     -13809.313      23611.807      24795.771    
   1904000   4222.4833     -15006.889     -13828.509      28847.247      24835.562    
   1905000   4324.4339     -14970.708     -13763.877     -4868.9904      24903.942    
   1906000   4444.7803     -14985.445     -13745.028     -41143.456      24922.337    
   1907000   4353.877      -14979.37      -13764.322      12376.908      24770.918    
   1908000   4322.6018     -14973.634     -13767.314     -27597.602      25008.816    
   1909000   4378.0642     -14973.747     -13751.949     -7591.9993      25107.423    
   1910000   4424.4707     -14940.923     -13706.174     -6571.0694      25044.82     
   1911000   4210.6727     -14967.171     -13792.087     -6984.8585      25093.839    
   1912000   4088.1067     -14969.037     -13828.158     -7185.6471      24973.596    
   1913000   4266.2523     -14990.454     -13799.86       21269.107      24783.268    
   1914000   4409.1591     -14949.865     -13719.389     -18562.895      24737.569    
   1915000   4216.8727     -14989.386     -13812.572      3009.0078      24954.468    
   1916000   4341.2259     -14982.256     -13770.739      28886.688      24885.562    
   1917000   4302.9437     -14945.032     -13744.198      10906.164      24871.671    
   1918000   4269.6757     -14985.885     -13794.335      33716.885      24704.303    
   1919000   4392.1242     -14975.202     -13749.481      5925.4728      24865.182    
   1920000   4322.8855     -14937.899     -13731.5       -15232.104      25084.744    
   1921000   4462.1849     -14953.785     -13708.511     -9070.9867      24852.718    
   1922000   4324.1762     -14936.152     -13729.393     -12305.235      24656.831    
   1923000   4465.1144     -14995.373     -13749.282      5427.408       24833.142    
   1924000   4276.4142     -14998.866     -13805.436     -6687.3344      24836.857    
   1925000   4401.8624     -14910.361     -13681.921     -3910.6864      24988.432    
   1926000   4455.6181     -14937.616     -13694.175     -28502.978      25034.478    
   1927000   4480.1794     -14972.011     -13721.715      253.88213      24861.516    
   1928000   4264.6823     -14935.632     -13745.476      46163.038      24821.094    
   1929000   4379.523      -14881.651     -13659.446      20438.579      24770.887    
   1930000   4416.2631     -14991.552     -13759.093      21459.512      24711.257    
   1931000   4276.2228     -14949.607     -13756.231     -4036.4827      24987.542    
   1932000   4421.929      -14925.927     -13691.887      1699.3681      25061.846    
   1933000   4403.9207     -14934.448     -13705.434      15822.52       24975.938    
   1934000   4299.6337     -14979.918     -13780.007      571.29157      25098.359    
   1935000   4354.0315     -14990.486     -13775.395     -14660.058      24947.398    
   1936000   4477.1625     -14961.738     -13712.284     -12038.959      25044.745    
   1937000   4264.7592     -14890.165     -13699.987      17339.783      24970.518    
   1938000   4336.2026     -14947.87      -13737.754      8386.1095      24812.8      
   1939000   4259.3974     -14908.37      -13719.688     -16659.153      24969.414    
   1940000   4332.3713     -14924.75      -13715.703     -5694.9239      24813.952    
   1941000   4305.0417     -14946.263     -13744.844      27671.496      24755.889    
   1942000   4257.3274     -14934.05      -13745.946      2363.7314      24764.521    
   1943000   4356.7365     -14980.277     -13764.431     -26515.917      25003.511    
   1944000   4398.1434     -14926.653     -13699.252     -22340.337      25043.25     
   1945000   4348.019      -14927.673     -13714.26       11225.348      25036.602    
   1946000   4429.0647     -14909.47      -13673.439      27710.786      24959.426    
   1947000   4492.0522     -14951.058     -13697.449     -8893.1749      24990.734    
   1948000   4351.071      -14861.017     -13646.752     -3426.6081      25037.654    
   1949000   4514.9887     -14854.998     -13594.989      24256.312      24976.739    
   1950000   4458.9377     -14871.074     -13626.706      14356.654      25045.867    
   1951000   4310.3611     -14896.841     -13693.937      13398.848      24997.76     
   1952000   4447.1726     -14851.872     -13610.788      21327.795      24922.712    
   1953000   4389.9249     -14944.462     -13719.354      15025.564      24752.859    
   1954000   4434.9236     -14921.018     -13683.352     -3464.3777      24724.263    
   1955000   4374.2813     -14906.469     -13685.726      10579.471      24719.107    
   1956000   4391.0145     -14900.663     -13675.251      9940.1093      24950.095    
   1957000   4305.8701     -14882.574     -13680.923     -12030.376      24876.793    
   1958000   4437.8266     -14895.001     -13656.525     -22802.589      24895.916    
   1959000   4408.158      -14909.302     -13679.106      3339.6233      24858.695    
   1960000   4411.3447     -14932.869     -13701.783      3375.1607      25041.984    
   1961000   4520.2668     -14928.45      -13666.967      10461.977      24975.268    
   1962000   4421.5714     -14906.001     -13672.061     -9326.7945      25131.103    
   1963000   4515.6485     -14904.331     -13644.137      30848.663      25010.808    
   1964000   4443.1918     -14841.668     -13601.695      6323.1842      24885.38     
   1965000   4359.0015     -14884.757     -13668.279      17509.142      24792.337    
   1966000   4400.6103     -14911.799     -13683.709     -942.74687      24852.763    
   1967000   4382.4276     -14913.956     -13690.941      12377.014      24937.322    
   1968000   4415.5564     -14897.926     -13665.665      4626.9411      24913.981    
   1969000   4299.9947     -14884.311     -13684.3        12086.762      24803.721    
   1970000   4285.3603     -14890.389     -13694.462     -25024.306      25066.702    
   1971000   4408.5202     -14935.244     -13704.947      5831.3313      25008.822    
   1972000   4448.9324     -14938.645     -13697.07       20576.381      25056.257    
   1973000   4502.2022     -14880.105     -13623.663      4175.6028      25121.364    
   1974000   4485.5797     -14884.171     -13632.368     -6104.7866      25173.33     
   1975000   4374.5185     -14924.118     -13703.31       4094.1725      25049.533    
   1976000   4328.0348     -14901.946     -13694.11       18781.74       25048.064    
   1977000   4362.1803     -14905.707     -13688.341      26274.142      24838.038    
   1978000   4570.4931     -14923.826     -13648.326      24250.427      24909.05     
   1979000   4496.7755     -14881.613     -13626.685     -34246.188      25087.929    
   1980000   4487.208      -14911.392     -13659.135      4231.2136      25064.105    
   1981000   4572.546      -14968.79      -13692.717      15929.981      24936.383    
   1982000   4433.6355     -14898.852     -13661.545     -10418.344      25355.97     
   1983000   4524.8168     -14885.341     -13622.589      2479.5747      25022.054    
   1984000   4425.7872     -14927.584     -13692.468      17099.659      25062.175    
   1985000   4388.5462     -14920.516     -13695.793      17579.336      24887.374    
   1986000   4551.8592     -14885.999     -13615.7       -4595.2363      24885.851    
   1987000   4508.1964     -14894.016     -13635.902     -0.32186529     25062.282    
   1988000   4311.1396     -14905.123     -13702.002     -43393.56       25034.197    
   1989000   4372.5818     -14868.408     -13648.14      -893.37788      24919.217    
   1990000   4459.3922     -14879.847     -13635.352      6537.3682      24939.382    
   1991000   4459.0571     -14878.168     -13633.767      25431.908      24887.607    
   1992000   4458.7684     -14889.742     -13645.421      919.92894      25049.498    
   1993000   4519.5535     -14824.556     -13563.272     -44839.359      25126.206    
   1994000   4474.8769     -14860.365     -13611.549     -19484.748      25001.443    
   1995000   4423.2788     -14908.082     -13673.666      6200.6267      24905.134    
   1996000   4490.6129     -14874.92      -13621.712      23545.681      24945.243    
   1997000   4654.9223     -14889.66      -13590.598     -9741.852       25149.694    
   1998000   4357.0913     -14854.577     -13638.632     -6052.6656      24993.078    
   1999000   4463.1932     -14893.269     -13647.714      681.54405      25114.992    
   2000000   4522.5527     -14885.419     -13623.298     -23805.979      25272.958    
   2000007   4523.6315     -14881.92      -13619.498     -25561.721      25277.49     
Loop time of 7133.49 on 6 procs for 2000000 steps with 2160 atoms

Performance: 1.211 ns/day, 19.815 hours/ns, 280.368 timesteps/s
98.3% CPU use with 6 MPI tasks x 1 OpenMP threads

MPI task timing breakdown:
Section |  min time  |  avg time  |  max time  |%varavg| %total
---------------------------------------------------------------
Pair    | 5618.4     | 5707       | 5806       |  95.1 | 80.00
Neigh   | 8.4118     | 8.5729     | 8.7713     |   3.8 |  0.12
Comm    | 1122.2     | 1221.7     | 1310.5     | 205.4 | 17.13
Output  | 2.5868     | 2.6761     | 2.8076     |   4.4 |  0.04
Modify  | 166.6      | 167.37     | 168.71     |   5.3 |  2.35
Other   |            | 26.14      |            |       |  0.37

Nlocal:            360 ave         370 max         338 min
Histogram: 1 0 0 0 0 1 0 1 1 2
Nghost:        3126.83 ave        3169 max        3087 min
Histogram: 2 0 0 0 0 1 2 0 0 1
Neighs:              0 ave           0 max           0 min
Histogram: 6 0 0 0 0 0 0 0 0 0
FullNghs:      32977.3 ave       34557 max       30210 min
Histogram: 1 0 0 0 0 2 0 1 0 2

Total # of neighbors = 197864
Ave neighs/atom = 91.603704
Neighbor list builds = 3395
Dangerous builds = 0

write_restart checkpoint.init
System init for write_restart ...
write_data checkpoint.data
System init for write_data ...

Total wall time: 1:58:53
