LAMMPS (24 Mar 2022)
OMP_NUM_THREADS environment is not set. Defaulting to 1 thread. (src/comm.cpp:98)
  using 1 OpenMP thread(s) per MPI task

# System init

units      metal
dimension  3
boundary   p p p
atom_style atomic
timestep   0.00005


# read data
read_data Al2O3_trigonal_iter_last_lmp.data
Reading data file ...
  triclinic box = (0 0 0) to (14.415084 12.483828 13.116254) with tilt (-7.207542 0 0)
  2 by 1 by 3 MPI processor grid
  reading atoms ...
  270 atoms
  read_data CPU = 0.002 seconds
replicate 2 2 2
Replicating atoms ...
  triclinic box = (0 0 0) to (28.830168 24.967656 26.232508) with tilt (-14.415084 0 0)
  2 by 1 by 3 MPI processor grid
  2160 atoms
  replicate CPU = 0.001 seconds

# pair potential

pair_style hybrid/overlay eam/alloy edip/multi
pair_coeff * * eam/alloy Mishin-Ni-Al-2009.eam.alloy Al NULL
pair_coeff * * edip/multi NiAlO.edip Al O

mass 2 15.999


# reporting
thermo_style custom step temp pe epair etotal press vol
thermo 100

dump   1 all atom 1000 generic.lammpstrj

# Single point
min_style hftn
minimize 1e-10 1e-10 10000 100000

CITE-CITE-CITE-CITE-CITE-CITE-CITE-CITE-CITE-CITE-CITE-CITE-CITE

Your simulation uses code contributions which should be cited:

- @article{cjiang2012
 author    = {Jian, Chao and Morgan, Dane, and Szlufarska, Izabella},
 title     = {Carbon tri-interstitial defect: A model for DII center},
 journal   = {Physical Review B},
 volume    = {86},
 pages     = {144118},
 year      = {2012},
}

@article{lpizzagalli2010,
 author    = {G. Lucas, M. Bertolus, and L. Pizzagalli},
 journal   = {J. Phys. : Condens. Matter 22},
 volume    = {22},
 pages     = {035802},
 year      = {2010},
}

CITE-CITE-CITE-CITE-CITE-CITE-CITE-CITE-CITE-CITE-CITE-CITE-CITE

WARNING: Using 'neigh_modify every 1 delay 0 check yes' setting during minimization (src/min.cpp:187)
Neighbor list info ...
  update every 1 steps, delay 0 steps, check yes
  max neighbors/atom: 2000, page size: 100000
  master list distance cutoff = 8.28721
  ghost atom cutoff = 8.28721
  binsize = 4.143605, bins = 11 7 7
  3 neighbor lists, perpetual/occasional/extra = 3 0 0
  (1) pair eam/alloy, perpetual, skip from (3)
      attributes: half, newton on
      pair build: skip
      stencil: none
      bin: none
  (2) pair edip/multi, perpetual
      attributes: full, newton on
      pair build: full/bin/atomonly
      stencil: full/bin/3d
      bin: standard
  (3) neighbor class addition, perpetual, half/full from (2)
      attributes: half, newton on
      pair build: halffull/newton
      stencil: none
      bin: none
Per MPI rank memory allocation (min/avg/max) = 8.406 | 8.406 | 8.407 Mbytes
   Step          Temp          PotEng         E_pair         TotEng         Press          Volume    
         0   0             -15902.603     -15902.603     -15902.603     -63400.131      18882.729    
         4   0             -15957.347     -15957.347     -15957.347     -46797.498      18882.729    
Loop time of 0.19337 on 6 procs for 3 steps with 2160 atoms

99.2% CPU use with 6 MPI tasks x 1 OpenMP threads

Minimization stats:
  Stopping criterion = energy tolerance
  Energy initial, next-to-last, final = 
     -15902.6031267937  -15957.3454978745  -15957.3466416775
  Force two-norm initial, final = 61.640996 6.2397408e-07
  Force max component initial, final = 1.6011772 1.6232519e-08
  Final line search alpha, max atom move = 0 0
  Iterations, force evaluations = 3 44

MPI task timing breakdown:
Section |  min time  |  avg time  |  max time  |%varavg| %total
---------------------------------------------------------------
Pair    | 0.11758    | 0.14727    | 0.17918    |   6.4 | 76.16
Neigh   | 0          | 0          | 0          |   0.0 |  0.00
Comm    | 0.0098937  | 0.042392   | 0.07129    |  11.6 | 21.92
Output  | 0          | 0          | 0          |   0.0 |  0.00
Modify  | 0          | 0          | 0          |   0.0 |  0.00
Other   |            | 0.003706   |            |       |  1.92

Nlocal:            360 ave         371 max         349 min
Histogram: 3 0 0 0 0 0 0 0 0 3
Nghost:        3514.67 ave        3531 max        3494 min
Histogram: 1 0 0 0 2 1 0 0 0 2
Neighs:              0 ave           0 max           0 min
Histogram: 6 0 0 0 0 0 0 0 0 0
FullNghs:        43344 ave       44995 max       41693 min
Histogram: 3 0 0 0 0 0 0 0 0 3

Total # of neighbors = 260064
Ave neighs/atom = 120.4
Neighbor list builds = 0
Dangerous builds = 0

# Thermalisation

velocity all create 300 1 mom yes rot no

fix 1 all npt temp 300 300 $(100*dt) iso 1.0 1.0 $(1000*dt)
fix 1 all npt temp 300 300 0.0050000000000000001041 iso 1.0 1.0 $(1000*dt)
fix 1 all npt temp 300 300 0.0050000000000000001041 iso 1.0 1.0 0.050000000000000002776


run  200000
Per MPI rank memory allocation (min/avg/max) = 5.796 | 5.797 | 5.798 Mbytes
   Step          Temp          PotEng         E_pair         TotEng         Press          Volume    
         4   300           -15957.347     -15957.347     -15873.625     -42061.703      18882.729    
       100   244.13698     -15942.683     -15942.683     -15874.551      1830.6083      18677.888    
       200   145.02351     -15906.534     -15906.534     -15866.062      22058.573      18611.05     
       300   124.61871     -15892.708     -15892.708     -15857.93       3908.9671      18704.188    
       400   205.5959      -15902.399     -15902.399     -15845.022     -12014.552      18760.557    
       500   265.39175     -15903.721     -15903.721     -15829.657     -5806.216       18716.348    
       600   245.66813     -15883.969     -15883.969     -15815.41       6528.2168      18669.495    
       700   241.82604     -15867.741     -15867.741     -15800.254      5701.5712      18690.039    
       800   300.42332     -15868.92      -15868.92      -15785.08      -2844.57        18732.331    
       900   328.30262     -15870.268     -15870.268     -15778.647     -4765.2305      18737.966    
      1000   274.12373     -15860.672     -15860.672     -15784.172      620.59938      18714.674    
      1100   270.22955     -15854.237     -15854.237     -15778.824      3595.3326      18701.188    
      1200   331.33857     -15859.99      -15859.99      -15767.522      554.28632      18703.672    
      1300   334.4774      -15867.09      -15867.09      -15773.746     -2580.3737      18702.131    
      1400   287.19996     -15867.274     -15867.274     -15787.124     -1303.0798      18691.464    
      1500   275.98673     -15866.497     -15866.497     -15789.476      1728.9109      18684.426    
      1600   311.79563     -15869.109     -15869.109     -15782.095      1724.6734      18698.049    
      1700   322.25628     -15871.099     -15871.099     -15781.166     -790.15182      18726.632    
      1800   293.15848     -15871.263     -15871.263     -15789.451     -1653.3802      18745.4      
      1900   290.79874     -15874.329     -15874.329     -15793.175      85.896058      18744.56     
      2000   313.0678      -15880.48      -15880.48      -15793.111      1366.3572      18737.925    
      2100   307.97473     -15884.721     -15884.721     -15798.774      346.26916      18739.036    
      2200   284.83385     -15885.065     -15885.065     -15805.576     -1067.4185      18744.765    
      2300   285.43121     -15884.183     -15884.183     -15804.527     -610.27963      18745.868    
      2400   307.91357     -15883.572     -15883.572     -15797.642      779.07325      18746.16     
      2500   311.65679     -15882.154     -15882.154     -15795.179      817.41202      18755.104    
      2600   294.84676     -15880.512     -15880.512     -15798.229     -447.41237      18769.183    
      2700   293.1435      -15880.906     -15880.906     -15799.097     -931.54132      18774.191    
      2800   305.67088     -15882.251     -15882.251     -15796.947      50.742411      18765.337    
      2900   301.36964     -15881.137     -15881.137     -15797.033      805.80782      18753.12     
      3000   290.11234     -15878.468     -15878.468     -15797.505      153.55582      18745.316    
      3100   299.79634     -15877.428     -15877.428     -15793.763     -734.69817      18736.757    
      3200   311.15078     -15877.22      -15877.22      -15790.386     -385.10735      18722.033    
      3300   298.90869     -15875.566     -15875.566     -15792.149      599.52504      18707.646    
      3400   287.0158      -15873.319     -15873.319     -15793.221      606.80948      18703.04     
      3500   301.66324     -15872.968     -15872.968     -15788.782     -350.9077       18705.89     
      3600   317.59992     -15874.635     -15874.635     -15786.002     -705.28207      18705.346    
      3700   305.36151     -15876.696     -15876.696     -15791.478      119.27742      18697.624    
      3800   289.18768     -15877.883     -15877.883     -15797.179      745.63742      18691.737    
      3900   288.29213     -15877.369     -15877.369     -15796.915      160.5552       18694.564    
      4000   301.82334     -15875.821     -15875.821     -15791.59      -690.76631      18701.302    
      4100   310.3072      -15874.705     -15874.705     -15788.107     -392.11042      18702.944    
      4200   306.59605     -15875.578     -15875.578     -15790.015      597.62331      18700.623    
      4300   298.74426     -15878.175     -15878.175     -15794.804      656.04865      18704.46     
      4400   293.29377     -15879.906     -15879.906     -15798.056     -370.61638      18718.625    
      4500   293.80563     -15879.78      -15879.78      -15797.787     -802.07335      18734.499    
      4600   300.78662     -15878.485     -15878.485     -15794.544      107.76212      18745.137    
      4700   304.76797     -15876.893     -15876.893     -15791.841      865.46051      18753.732    
      4800   303.59211     -15876.326     -15876.326     -15791.602      123.01304      18763.856    
      4900   297.92464     -15876.329     -15876.329     -15793.186     -988.13169      18770.67     
      5000   293.702       -15875.677     -15875.677     -15793.713     -563.35629      18767.791    
      5100   301.19261     -15875.435     -15875.435     -15791.381      888.21928      18758.896    
      5200   309.16624     -15876.1       -15876.1       -15789.82       966.19781      18755.459    
      5300   303.18417     -15877.244     -15877.244     -15792.634     -676.74454      18758.702    
      5400   298.23221     -15879.571     -15879.571     -15796.342     -1378.8712      18755.809    
      5500   297.68599     -15881.749     -15881.749     -15798.673      294.53255      18741.276    
      5600   293.98666     -15881.533     -15881.533     -15799.49       1740.7655      18729.104    
      5700   295.68982     -15879.746     -15879.746     -15797.227      260.53293      18730.877    
      5800   304.78335     -15878.973     -15878.973     -15793.916     -1982.1008      18732.273    
      5900   307.36886     -15879.535     -15879.535     -15793.756     -1021.5681      18713.607    
      6000   296.37404     -15879.554     -15879.554     -15796.844      2052.9828      18685.247    
      6100   291.59878     -15878.655     -15878.655     -15797.277      2046.227       18677.312    
      6200   299.7042      -15877.637     -15877.637     -15793.998     -1629.4681      18693.373    
      6300   302.03875     -15876.895     -15876.895     -15792.604     -2956.0908      18702.305    
      6400   300.84159     -15876.779     -15876.779     -15792.822      902.00691      18688.597    
      6500   297.72318     -15877.095     -15877.095     -15794.008      3869.2612      18679.916    
      6600   292.51336     -15878.036     -15878.036     -15796.403      277.06144      18701.811    
      6700   297.20697     -15879.478     -15879.478     -15796.536     -4491.0517      18728.986    
      6800   306.77813     -15879.921     -15879.921     -15794.308     -1976.0245      18722.355    
      6900   302.74173     -15878.507     -15878.507     -15794.02       4564.4097      18698.549    
      7000   290.56001     -15877.44      -15877.44      -15796.353      3991.9115      18709.621    
      7100   295.80368     -15877.846     -15877.846     -15795.295     -3731.5872      18756.169    
      7200   306.12557     -15877.668     -15877.668     -15792.236     -5898.1663      18777.682    
      7300   297.73551     -15875.957     -15875.957     -15792.867      1967.0606      18750.462    
      7400   295.48984     -15874.594     -15874.594     -15792.131      7145.5588      18735.252    
      7500   308.33275     -15874.822     -15874.822     -15788.775      249.58006      18775.302    
      7600   307.50624     -15875.125     -15875.125     -15789.309     -7378.5121      18812.928    
      7700   301.94935     -15875.795     -15875.795     -15791.53      -2872.4513      18783.846    
      7800   298.81531     -15876.772     -15876.772     -15793.381      6431.8965      18727.194    
      7900   296.84221     -15877.13      -15877.13      -15794.29       4902.7105      18723.622    
      8000   298.90889     -15876.436     -15876.436     -15793.019     -4493.5753      18761.759    
      8100   309.67201     -15876.026     -15876.026     -15789.605     -6005.9188      18763.633    
      8200   306.43007     -15876.862     -15876.862     -15791.346      2209.3845      18716.236    
      8300   304.20311     -15878.727     -15878.727     -15793.832      6076.8811      18689.332    
      8400   302.22824     -15880.174     -15880.174     -15795.831     -169.49268      18712.026    
      8500   295.00853     -15879.945     -15879.945     -15797.616     -5340.386       18730.31     
      8600   296.11165     -15879.506     -15879.506     -15796.869     -1447.7582      18703.633    
      8700   308.92643     -15879.83      -15879.83      -15793.617      4201.9725      18668.329    
      8800   305.7873      -15879.788     -15879.788     -15794.451      2525.4344      18670.409    
      8900   296.66836     -15878.455     -15878.455     -15795.663     -2819.859       18695.798    
      9000   293.26523     -15876.442     -15876.442     -15794.6       -2972.4797      18702.026    
      9100   300.9063      -15875.465     -15875.465     -15791.49       1571.5541      18689.812    
      9200   304.92675     -15875.941     -15875.941     -15790.845      3137.8047      18693.841    
      9300   303.04334     -15877.308     -15877.308     -15792.737     -382.79142      18722.509    
      9400   298.59276     -15878.39      -15878.39      -15795.061     -2855.4934      18744.932    
      9500   296.69756     -15878.095     -15878.095     -15795.295     -591.70114      18743.245    
      9600   297.49062     -15877.066     -15877.066     -15794.045      2352.5255      18736.685    
      9700   302.92426     -15876.786     -15876.786     -15792.248      1279.1287      18747.353    
      9800   302.98233     -15876.788     -15876.788     -15792.234     -1721.4158      18765.182    
      9900   299.03808     -15876.553     -15876.553     -15793.1       -1753.5077      18767.183    
     10000   297.47791     -15875.981     -15875.981     -15792.963      993.09196      18755.983    
     10100   297.37515     -15874.614     -15874.614     -15791.625      1964.0966      18755.448    
     10200   300.01167     -15872.712     -15872.712     -15788.987     -296.41351      18772.102    
     10300   301.45115     -15871.535     -15871.535     -15787.409     -1972.4654      18783.1      
     10400   305.75701     -15872.865     -15872.865     -15787.536     -420.81846      18770.688    
     10500   308.94462     -15875.843     -15875.843     -15789.625      1686.7248      18748.082    
     10600   305.78858     -15877.647     -15877.647     -15792.31       886.55042      18737.615    
     10700   297.02548     -15877.697     -15877.697     -15794.805     -1348.3156      18735.829    
     10800   295.64927     -15877.671     -15877.671     -15795.163     -1287.7457      18724.632    
     10900   304.58879     -15878.083     -15878.083     -15793.081      934.11514      18704.527    
     11000   306.42657     -15877.619     -15877.619     -15792.103      1598.2644      18694.997    
     11100   291.6515      -15876.969     -15876.969     -15795.577     -399.09095      18700.659    
     11200   295.4486      -15878.506     -15878.506     -15796.055     -1729.5906      18703.776    
     11300   308.34139     -15880.722     -15880.722     -15794.673     -120.29779      18692.847    
     11400   298.93688     -15880.849     -15880.849     -15797.424      1732.2736      18682.203    
     11500   291.98619     -15880.417     -15880.417     -15798.932      698.61723      18687.559    
     11600   300.95106     -15881.235     -15881.235     -15797.248     -1498.5815      18699.839    
     11700   304.60068     -15881.501     -15881.501     -15796.495     -1220.0639      18703.118    
     11800   293.60921     -15879.968     -15879.968     -15798.029      1182.1717      18700.686    
     11900   292.14188     -15878.527     -15878.527     -15796.998      1781.9366      18710.293    
     12000   301.40987     -15877.252     -15877.252     -15793.137     -671.08059      18736.715    
     12100   297.53151     -15875.2       -15875.2       -15792.167     -2203.3042      18757.948    
     12200   300.08574     -15873.88      -15873.88      -15790.134     -92.00038       18758.377    
     12300   305.93725     -15873.62      -15873.62      -15788.241      2334.2175      18752.816    
     12400   300.72214     -15873.449     -15873.449     -15789.526      853.40913      18761.709    
     12500   288.33416     -15873.639     -15873.639     -15793.173     -2329.4612      18775.217    
     12600   297.72301     -15875.254     -15875.254     -15792.168     -1852.2617      18769.679    
     12700   302.81904     -15876.119     -15876.119     -15791.611      1988.3575      18748.763    
     12800   298.20588     -15875.467     -15875.467     -15792.246      2833.4988      18744.723    
     12900   299.3321      -15875.69      -15875.69      -15792.155     -1248.5956      18764.425    
     13000   309.44995     -15877.258     -15877.258     -15790.899     -3694.4025      18773.356    
     13100   303.05453     -15878.451     -15878.451     -15793.877      86.340576      18747.19     
     13200   298.53926     -15879.741     -15879.741     -15796.427      4187.3148      18715.774    
     13300   302.54308     -15881.816     -15881.816     -15797.384      1319.0851      18715.282    
     13400   300.25064     -15883.63      -15883.63      -15799.839     -4250.3087      18726.88     
     13500   295.69375     -15884.518     -15884.518     -15801.998     -2899.5194      18706.768    
     13600   295.55541     -15883.941     -15883.941     -15801.46       3837.0191      18665.75     
     13700   294.65901     -15881.997     -15881.997     -15799.766      4579.8998      18660.086    
     13800   294.29614     -15879.829     -15879.829     -15797.699     -2591.7319      18697.566    
     13900   297.92627     -15878.417     -15878.417     -15795.274     -5720.0698      18717.935    
     14000   301.39461     -15877.75      -15877.75      -15793.639      906.04487      18691.216    
     14100   300.86538     -15876.824     -15876.824     -15792.86       6356.3559      18670.801    
     14200   301.47861     -15876.095     -15876.095     -15791.96       1036.5088      18702.643    
     14300   309.31386     -15875.8       -15875.8       -15789.479     -6151.9133      18743.628    
     14400   300.98779     -15874.985     -15874.985     -15790.988     -3040.2166      18733.79     
     14500   290.61682     -15874.053     -15874.053     -15792.95       5179.5642      18700.728    
     14600   300.75321     -15874.649     -15874.649     -15790.717      4693.4149      18712.331    
     14700   305.61025     -15875.329     -15875.329     -15790.042     -3419.5543      18762.226    
     14800   299.94672     -15875.122     -15875.122     -15791.415     -5533.4369      18782.382    
     14900   297.86214     -15875.433     -15875.433     -15792.308      1396.6478      18755.551    
     15000   300.7884      -15875.946     -15875.946     -15792.004      5526.4905      18740.145    
     15100   302.74648     -15875.033     -15875.033     -15790.545      398.38615      18768.676    
     15200   302.07095     -15872.909     -15872.909     -15788.609     -4816.9997      18795.538    
     15300   304.19802     -15872.473     -15872.473     -15787.579     -1889.4427      18776.98     
     15400   305.50265     -15874.383     -15874.383     -15789.125      3573.0379      18741.11     
     15500   300.97752     -15876.902     -15876.902     -15792.907      2731.602       18734.873    
     15600   301.59702     -15878.621     -15878.621     -15794.453     -2220.9323      18751.085    
     15700   298.44389     -15879.492     -15879.492     -15796.204     -3042.9097      18748.533    
     15800   297.18822     -15880.391     -15880.391     -15797.454      926.18316      18722.2      
     15900   296.96689     -15880.861     -15880.861     -15797.986      2901.7712      18705.041    
     16000   298.4077      -15880.31      -15880.31      -15797.032      85.411017      18711.805    
     16100   301.00682     -15878.51      -15878.51      -15794.507     -2505.9651      18719.142    
     16200   299.14968     -15875.987     -15875.987     -15792.503     -860.17274      18706.714    
     16300   303.07596     -15875.045     -15875.045     -15790.465      1978.5681      18688.074    
     16400   307.93141     -15876.18      -15876.18      -15790.245      1417.9486      18685.979    
     16500   293.20376     -15876.899     -15876.899     -15795.073     -1274.5426      18697.268    
     16600   294.59421     -15876.834     -15876.834     -15794.621     -1725.8932      18704.652    
     16700   301.68972     -15876.234     -15876.234     -15792.041      699.97595      18702.912    
     16800   303.08161     -15875.374     -15875.374     -15790.792      1892.1097      18708.207    
     16900   300.22332     -15875.026     -15875.026     -15791.242     -92.271013      18726.822    
     17000   293.1506      -15875.383     -15875.383     -15793.573     -1887.4692      18741.454    
     17100   292.31969     -15876.047     -15876.047     -15794.469     -527.5356       18739.526    
     17200   305.694       -15876.507     -15876.507     -15791.196      1690.2754      18734.754    
     17300   305.84805     -15876.221     -15876.221     -15790.867      1093.1141      18743.927    
     17400   301.10078     -15876.72      -15876.72      -15792.691     -1348.1183      18760.555    
     17500   302.84822     -15878.315     -15878.315     -15793.799     -1575.9296      18764.898    
     17600   300.60815     -15878.964     -15878.964     -15795.073      809.15176      18756.523    
     17700   297.27769     -15878.861     -15878.861     -15795.899      1872.1348      18753.859    
     17800   300.8007      -15879.146     -15879.146     -15795.2       -230.34762      18763.557    
     17900   315.10859     -15879.886     -15879.886     -15791.948     -2075.3514      18768.243    
     18000   306.29119     -15879.873     -15879.873     -15794.396     -482.24685      18751.757    
     18100   296.06993     -15879.489     -15879.489     -15796.864      1944.26        18729.9      
     18200   297.71443     -15879.32      -15879.32      -15796.236      1192.4753      18724.446    
     18300   302.8713      -15878.63      -15878.63      -15794.107     -1603.1926      18731.295    
     18400   301.8766      -15877.056     -15877.056     -15792.811     -1773.3723      18727.169    
     18500   303.11605     -15875.966     -15875.966     -15791.375      1092.9325      18708.275    
     18600   309.58228     -15875.762     -15875.762     -15789.366      2226.1248      18697.85     
     18700   297.39293     -15874.611     -15874.611     -15791.617     -393.84587      18706.996    
     18800   288.68387     -15873.14      -15873.14      -15792.576     -2443.5105      18715.464    
     18900   301.23532     -15873.645     -15873.645     -15789.578     -384.249        18703.927    
     19000   306.50877     -15875.066     -15875.066     -15789.528      2462.7552      18687.655    
     19100   299.56882     -15875.598     -15875.598     -15791.996      1215.3678      18692.837    
     19200   297.06227     -15876.21      -15876.21      -15793.309     -2138.0821      18711.222    
     19300   302.00684     -15877.459     -15877.459     -15793.177     -1938.3257      18715.387    
     19400   297.65069     -15877.578     -15877.578     -15794.511      1598.8814      18706.78     
     19500   288.78561     -15877.21      -15877.21      -15796.618      2596.5361      18712.739    
     19600   303.45238     -15878.539     -15878.539     -15793.854     -828.57794      18740.624    
     19700   309.03609     -15879.746     -15879.746     -15793.502     -2989.6262      18760.21     
     19800   297.50646     -15879.153     -15879.153     -15796.127     -156.44341      18752.548    
     19900   296.73434     -15878.898     -15878.898     -15796.088      3050.0632      18739.966    
     20000   304.85864     -15880.041     -15880.041     -15794.964      1135.6439      18749.158    
     20100   299.2788      -15879.805     -15879.805     -15796.284     -2858.9964      18767.995    
     20200   281.54527     -15877.875     -15877.875     -15799.303     -2161.2737      18764.615    
     20300   295.05069     -15877.906     -15877.906     -15795.566      2246.7016      18743.368    
     20400   305.26654     -15879.421     -15879.421     -15794.229      3115.1484      18737.537    
     20500   301.51752     -15879.787     -15879.787     -15795.642     -1364.2485      18756.733    
     20600   294.51645     -15879.915     -15879.915     -15797.724     -3770.6779      18763.322    
     20700   299.1722      -15880.847     -15880.847     -15797.356      179.43416      18736.433    
     20800   302.83348     -15879.776     -15879.776     -15795.263      4090.5898      18710.843    
     20900   300.45228     -15876.22      -15876.22      -15792.372      1150.6198      18720.5      
     21000   300.18076     -15873.456     -15873.456     -15789.684     -3952.4098      18739.45     
     21100   302.24804     -15873.393     -15873.393     -15789.044     -2559.2672      18723.827    
     21200   304.60142     -15874.877     -15874.877     -15789.871      3366.2227      18686.424    
     21300   300.76685     -15876.091     -15876.091     -15792.155      3908.1821      18678.716    
     21400   298.10682     -15876.506     -15876.506     -15793.313     -2225.4761      18707.795    
     21500   299.48831     -15876.713     -15876.713     -15793.134     -4834.0334      18722.114    
     21600   301.55951     -15877.206     -15877.206     -15793.049      776.06972      18696.982    
     21700   298.04474     -15876.909     -15876.909     -15793.733      5433.9983      18678.344    
     21800   288.9816      -15876.355     -15876.355     -15795.708      959.83036      18705.057    
     21900   299.10598     -15877.231     -15877.231     -15793.758     -5416.4662      18741.411    
     22000   308.27022     -15877.995     -15877.995     -15791.966     -2844.9718      18734.795    
     22100   296.35164     -15876.758     -15876.758     -15794.054      4843.9276      18705.979    
     22200   291.72746     -15875.57      -15875.57      -15794.157      4680.2211      18717.813    
     22300   303.3258      -15875.722     -15875.722     -15791.072     -3638.8711      18769.132    
     22400   305.34017     -15876.624     -15876.624     -15791.412     -6229.6916      18788.266    
     22500   301.64545     -15878.189     -15878.189     -15794.008      1727.2163      18750.815    
     22600   298.09106     -15879.21      -15879.21      -15796.021      7247.1991      18723.505    
     22700   295.91733     -15878.952     -15878.952     -15796.37       564.72012      18755.517    
     22800   301.57277     -15877.737     -15877.737     -15793.576     -7307.4737      18793.596    
     22900   306.40317     -15876.678     -15876.678     -15791.169     -3089.7667      18770.492    
     23000   299.99912     -15875.696     -15875.696     -15791.974      6335.6628      18720.59     
     23100   297.93967     -15875.356     -15875.356     -15792.209      5031.9858      18722.752    
     23200   302.8058      -15875.732     -15875.732     -15791.227     -4429.3141      18764.776    
     23300   306.35193     -15875.485     -15875.485     -15789.991     -6001.6898      18768.44     
     23400   296.61461     -15873.931     -15873.931     -15791.154      2147.4219      18723.386    
     23500   294.16319     -15873.504     -15873.504     -15791.412      5917.0926      18697.468    
     23600   308.11678     -15874.771     -15874.771     -15788.784     -179.448        18718.064    
     23700   303.99289     -15874.545     -15874.545     -15789.709     -5070.3098      18733.968    
     23800   294.02645     -15874.302     -15874.302     -15792.247     -1345.958       18709.155    
     23900   301.46715     -15875.861     -15875.861     -15791.729      3911.7175      18678.711    
     24000   303.90764     -15876.994     -15876.994     -15792.182      2302.8626      18685.081    
     24100   294.77401     -15876.391     -15876.391     -15794.127     -2608.4891      18711.676    
     24200   296.70918     -15876.592     -15876.592     -15793.789     -2684.2294      18716.103    
     24300   316.8695      -15878.106     -15878.106     -15789.676      1453.6607      18700.728    
     24400   306.98059     -15878.187     -15878.187     -15792.517      2818.9629      18698.905    
     24500   299.92519     -15878.556     -15878.556     -15794.855     -505.8448       18720.099    
     24600   301.48086     -15880.485     -15880.485     -15796.35      -2652.5225      18734.61     
     24700   298.52426     -15881.968     -15881.968     -15798.658     -317.95984      18727.733    
     24800   292.28277     -15881.412     -15881.412     -15799.844      2362.3733      18721.778    
     24900   300.20971     -15880.34      -15880.34      -15796.56       1042.3309      18737.295    
     25000   305.64915     -15880.332     -15880.332     -15795.033     -1864.2322      18758.774    
     25100   301.56779     -15881.012     -15881.012     -15796.853     -1609.0778      18761.131    
     25200   294.50394     -15881.017     -15881.017     -15798.829      1245.7886      18748.244    
     25300   294.21843     -15879.818     -15879.818     -15797.71       1924.0866      18745.553    
     25400   297.62229     -15877.274     -15877.274     -15794.216     -635.20211      18758.76     
     25500   294.25054     -15874.606     -15874.606     -15792.489     -2078.3693      18764.712    
     25600   302.07019     -15874.189     -15874.189     -15789.889     -68.960111      18751.226    
     25700   305.36535     -15874.508     -15874.508     -15789.289      2013.4205      18735.916    
     25800   296.2879      -15874.119     -15874.119     -15791.433      685.6674       18737.018    
     25900   293.86092     -15874.764     -15874.764     -15792.756     -1795.6516      18742.905    
     26000   309.39055     -15876.553     -15876.553     -15790.21      -1262.8819      18733.788    
     26100   310.01101     -15876.777     -15876.777     -15790.261      1416.4321      18714.753    
     26200   295.0873      -15875.912     -15875.912     -15793.561      1760.9457      18707.13     
     26300   298.61064     -15876.56      -15876.56      -15793.226     -878.31598      18713.455    
     26400   306.21836     -15877.644     -15877.644     -15792.187     -2115.9275      18713.095    
     26500   295.70677     -15877.237     -15877.237     -15794.713      239.03954      18697.125    
     26600   288.02739     -15876.648     -15876.648     -15796.267      2405.2703      18685.226    
     26700   298.39035     -15876.783     -15876.783     -15793.511      583.478        18696.475    
     26800   301.19378     -15876.598     -15876.598     -15792.543     -2434.8898      18716.469    
     26900   301.24286     -15876.644     -15876.644     -15792.576     -1504.8463      18718.642    
     27000   300.7621      -15877.801     -15877.801     -15793.867      2299.5292      18706.253    
     27100   296.06442     -15879.731     -15879.731     -15797.107      2602.7535      18709.872    
     27200   296.59676     -15880.919     -15880.919     -15798.147     -1888.7317      18737.529    
     27300   297.44105     -15880.067     -15880.067     -15797.06      -3896.8614      18754.311    
     27400   306.13631     -15878.153     -15878.153     -15792.718      874.18467      18738.66     
     27500   301.93878     -15876.075     -15876.075     -15791.812      5167.6681      18724.205    
     27600   297.58592     -15875.203     -15875.203     -15792.155      684.41774      18750.709    
     27700   302.12296     -15875.596     -15875.596     -15791.282     -5901.5559      18785.743    
     27800   303.44969     -15875.612     -15875.612     -15790.928     -2889.3428      18772.139    
     27900   294.3386      -15874.977     -15874.977     -15792.835      5673.7571      18729.579    
     28000   295.98618     -15875.928     -15875.928     -15793.326      5003.9738      18729.672    
     28100   307.46787     -15876.802     -15876.802     -15790.996     -4407.7591      18772.251    
     28200   300.64411     -15874.875     -15874.875     -15790.974     -6564.6352      18779.982    
     28300   285.62309     -15872.818     -15872.818     -15793.108      2342.8292      18731.532    
     28400   302.94126     -15874.031     -15874.031     -15789.488      7221.0304      18700.871    
     28500   311.93478     -15876.361     -15876.361     -15789.309     -37.02004       18727.748    
     28600   301.51795     -15877.077     -15877.077     -15792.932     -6814.7144      18753.58     
     28700   297.3713      -15877.701     -15877.701     -15794.713     -2080.4745      18723.697    
     28800   299.71        -15878.53      -15878.53      -15794.889      5729.7984      18680.175    
     28900   302.31907     -15879.09      -15879.09      -15794.721      3611.7804      18687.4      
     29000   298.30696     -15879.03      -15879.03      -15795.78      -4115.6111      18723.682    
     29100   293.53782     -15879.219     -15879.219     -15797.3       -4475.1168      18723.544    
     29200   301.00969     -15880.094     -15880.094     -15796.09       2414.2068      18688.45     
     29300   307.88835     -15879.837     -15879.837     -15793.913      4829.9563      18678.72     
     29400   296.81063     -15878.156     -15878.156     -15795.324     -716.23714      18710.994    
     29500   287.15263     -15877.613     -15877.613     -15797.476     -4554.1962      18735.513    
     29600   304.08035     -15878.813     -15878.813     -15793.952     -773.21812      18723.395    
     29700   303.89815     -15878.114     -15878.114     -15793.304      4027.8094      18707.944    
     29800   292.15431     -15875.576     -15875.576     -15794.044      1986.3543      18727.321    
     29900   298.56221     -15874.447     -15874.447     -15791.126     -3112.9394      18760.822    
     30000   305.13861     -15874.878     -15874.878     -15789.722     -2865.7823      18764.53     
     30100   301.34299     -15875.252     -15875.252     -15791.156      1976.1198      18742.396    
     30200   297.02931     -15875.69      -15875.69      -15792.797      3346.6937      18735.394    
     30300   298.65724     -15876.354     -15876.354     -15793.007     -830.04767      18755.399    
     30400   305.34051     -15876.329     -15876.329     -15791.117     -3471.7871      18769.163    
     30500   306.38677     -15875.525     -15875.525     -15790.021     -331.21455      18754.501    
     30600   297.18369     -15875.24      -15875.24      -15792.304      3264.6892      18735.115    
     30700   296.92903     -15876.603     -15876.603     -15793.739      1327.6098      18740.143    
     30800   302.36956     -15878.082     -15878.082     -15793.699     -2803.5326      18754.963    
     30900   298.819       -15878.778     -15878.778     -15795.386     -2231.2382      18745.532    
     31000   295.16833     -15879.917     -15879.917     -15797.544      2065.645       18715.821    
     31100   301.25625     -15881.54      -15881.54      -15797.468      2878.7552      18702.736    
     31200   301.91532     -15881.792     -15881.792     -15797.536     -1150.9196      18715.711    
     31300   292.11882     -15880.801     -15880.801     -15799.279     -3202.5415      18722.011    
     31400   294.39524     -15880.283     -15880.283     -15798.125      183.65995      18703.758    
     31500   302.40486     -15879.213     -15879.213     -15794.82       3304.1055      18688.823    
     31600   297.67266     -15877.132     -15877.132     -15794.06       864.57938      18702.059    
     31700   298.92367     -15875.7       -15875.7       -15792.279     -3033.9841      18723.459    
     31800   302.63948     -15874.19      -15874.19      -15789.732     -1841.1389      18721.793    
     31900   298.36922     -15872.018     -15872.018     -15788.751      2512.4448      18705.912    
     32000   300.12907     -15871.871     -15871.871     -15788.113      2684.504       18708.921    
     32100   306.06811     -15873.891     -15873.891     -15788.475     -1723.5793      18732.268    
     32200   301.21914     -15875.437     -15875.437     -15791.375     -3330.0979      18742.266    
     32300   298.15442     -15876.409     -15876.409     -15793.202      657.44389      18726.902    
     32400   301.91016     -15877.799     -15877.799     -15793.544      3727.8834      18717.184    
     32500   298.76063     -15878.502     -15878.502     -15795.126      558.01871      18738.127    
     32600   286.74587     -15878.373     -15878.373     -15798.35      -3721.4878      18763.594    
     32700   298.13448     -15879.248     -15879.248     -15796.047     -1889.8548      18757.907    
     32800   304.70101     -15879.38      -15879.38      -15794.346      3394.6506      18734.181    
     32900   297.85983     -15878.344     -15878.344     -15795.22       3210.2831      18735.765    
     33000   297.69152     -15878.169     -15878.169     -15795.091     -2778.5351      18763.211    
     33100   305.54676     -15878.351     -15878.351     -15793.081     -4812.8459      18769.306    
     33200   304.48404     -15877.25      -15877.25      -15792.277      1682.5087      18732.711    
     33300   291.80972     -15875.625     -15875.625     -15794.189      6811.9738      18702.68     
     33400   294.57446     -15875.714     -15875.714     -15793.506      194.56476      18730.148    
     33500   307.50232     -15876.189     -15876.189     -15790.373     -8618.9146      18769.336    
     33600   302.98589     -15876.329     -15876.329     -15791.774     -3188.9404      18737.071    
     33700   300.51604     -15877.383     -15877.383     -15793.518      9327.5844      18669.399    
     33800   303.54755     -15879.306     -15879.306     -15794.594      6479.2243      18676.778    
     33900   300.92375     -15879.952     -15879.952     -15795.972     -7766.2992      18742.074    
     34000   297.90401     -15879.85      -15879.85      -15796.713     -8682.2201      18743.589    
     34100   299.19187     -15880.026     -15880.026     -15796.53       4717.7043      18676.008    
     34200   300.06815     -15879.473     -15879.473     -15795.733      9145.2187      18655.778    
     34300   302.46437     -15878.047     -15878.047     -15793.637     -1370.6957      18712.342    
     34400   307.85146     -15875.822     -15875.822     -15789.909     -7823.1184      18752.666    
     34500   297.91161     -15874.209     -15874.209     -15791.07      -1142.0934      18726.914    
     34600   297.08365     -15874.205     -15874.205     -15791.298      6067.8663      18697.397    
     34700   309.50988     -15875.153     -15875.153     -15788.777      2693.5333      18719.921    
     34800   310.10887     -15874.819     -15874.819     -15788.276     -4253.8434      18760.985    
     34900   292.9515      -15873.754     -15873.754     -15791.999     -3542.0766      18762.804    
     35000   296.44123     -15873.808     -15873.808     -15791.08       2613.8074      18736.314    
     35100   305.54399     -15874.425     -15874.425     -15789.156      3946.8396      18732.45     
     35200   303.92785     -15875.01      -15875.01      -15790.192     -1143.0957      18759.648    
     35300   293.01775     -15874.962     -15874.962     -15793.188     -3935.212       18775.237    
     35400   294.58586     -15874.839     -15874.839     -15792.628     -234.60807      18757.921    
     35500   302.87719     -15875.657     -15875.657     -15791.132      3593.5209      18737.88     
     35600   304.50307     -15876.439     -15876.439     -15791.461      1325.224       18746.35     
     35700   292.2977      -15875.712     -15875.712     -15794.14      -2980.8987      18763.751    
     35800   294.73438     -15875.719     -15875.719     -15793.466     -2233.307       18754.03     
     35900   312.33175     -15877.164     -15877.164     -15790.001      2090.7777      18724.666    
     36000   305.68218     -15877.209     -15877.209     -15791.901      2805.162       18713.493    
     36100   294.03452     -15876.143     -15876.143     -15794.086     -1144.499       18727.83     
     36200   299.66857     -15876.899     -15876.899     -15793.27      -3033.2684      18732.251    
     36300   310.80248     -15878.844     -15878.844     -15792.108      172.26958      18710.668    
     36400   297.02473     -15878.996     -15878.996     -15796.105      3037.4214      18691.207    
     36500   293.81703     -15878.52      -15878.52      -15796.523      722.12276      18699.671    
     36600   301.33435     -15878.406     -15878.406     -15794.312     -2706.7783      18715.73     
     36700   303.34175     -15877.895     -15877.895     -15793.24      -1520.4787      18711.24     
     36800   297.19691     -15876.961     -15876.961     -15794.022      2226.3503      18696.012    
     36900   291.0977      -15876.519     -15876.519     -15795.282      2216.1343      18699.959    
     37000   302.31932     -15877.297     -15877.297     -15792.928     -1519.8893      18723.274    
     37100   307.67842     -15877.532     -15877.532     -15791.667     -2668.2121      18735.516    
     37200   295.01339     -15876.404     -15876.404     -15794.074      673.69714      18726.259    
     37300   295.78851     -15876.709     -15876.709     -15794.162      2912.5173      18720.818    
     37400   310.39799     -15878.368     -15878.368     -15791.744      231.80361      18737.864    
     37500   306.10911     -15878.23      -15878.23      -15792.804     -2964.8887      18757.351    
     37600   289.81833     -15877.236     -15877.236     -15796.355     -1204.1477      18751.486    
     37700   297.44418     -15877.227     -15877.227     -15794.218      2718.2803      18734.686    
     37800   303.75483     -15876.565     -15876.565     -15791.795      2176.3827      18739.983    
     37900   298.34432     -15874.735     -15874.735     -15791.475     -2173.8051      18763.982    
     38000   300.44603     -15873.985     -15873.985     -15790.139     -3088.6827      18769.094    
     38100   313.73355     -15875.12      -15875.12      -15787.566      1272.7647      18745.4      
     38200   304.94546     -15876.369     -15876.369     -15791.268      3855.7917      18727.781    
     38300   301.00961     -15877.447     -15877.447     -15793.443     -217.71054      18742.41     
     38400   298.82103     -15878.264     -15878.264     -15794.872     -4421.3171      18756.883    
     38500   297.06785     -15878.96      -15878.96      -15796.057     -1274.2154      18734.527    
     38600   297.99761     -15879.154     -15879.154     -15795.991      4744.2106      18698.877    
     38700   305.19543     -15878.959     -15878.959     -15793.787      3125.5762      18701.95     
     38800   305.8681      -15877.971     -15877.971     -15792.611     -4427.2206      18735.612    
     38900   291.33893     -15876.291     -15876.291     -15794.986     -5098.0947      18736.31     
     39000   291.27802     -15876.175     -15876.175     -15794.888      3424.8386      18691.799    
     39100   309.92756     -15877.64      -15877.64      -15791.147      6885.143       18672.448    
     39200   305.24307     -15878.334     -15878.334     -15793.149     -1617.5973      18711.805    
     39300   295.88321     -15878.109     -15878.109     -15795.537     -7878.3899      18742.795    
     39400   295.91484     -15878.019     -15878.019     -15795.437     -772.64982      18710.525    
     39500   303.31657     -15877.427     -15877.427     -15792.78       7961.1135      18673.973    
     39600   303.69854     -15876.169     -15876.169     -15791.415      3161.2253      18705.388    
     39700   298.26875     -15875.368     -15875.368     -15792.129     -6713.176       18760.834    
     39800   292.96414     -15877.49      -15877.49      -15795.732     -4947.4559      18754.338    
     39900   300.38195     -15880.37      -15880.37      -15796.541      4652.7605      18708.878    
     40000   297.22721     -15879.927     -15879.927     -15796.979      5780.6886      18708.362    
     40100   293.95156     -15877.655     -15877.655     -15795.621     -2295.1219      18755.353    
     40200   301.3302      -15876.011     -15876.011     -15791.918     -5504.0126      18777.92     
     40300   298.96132     -15874.48      -15874.48      -15791.048      301.48246      18753.286    
     40400   298.16414     -15872.744     -15872.744     -15789.535      4610.6847      18734.265    
     40500   305.2165      -15871.894     -15871.894     -15786.716      1017.5451      18751.711    
     40600   304.9054      -15871.766     -15871.766     -15786.676     -3538.5989      18771.101    
     40700   302.04042     -15872.615     -15872.615     -15788.323     -1932.3105      18757.815    
     40800   305.26046     -15874.548     -15874.548     -15789.358      2454.5374      18730.199    
     40900   300.84176     -15875.781     -15875.781     -15791.825      2448.1819      18725.114    
     41000   295.67777     -15876.017     -15876.017     -15793.501     -1467.2345      18740.576    
     41100   299.79955     -15876.548     -15876.548     -15792.883     -2695.6959      18742.639    
     41200   307.63206     -15876.513     -15876.513     -15790.662      539.91018      18722.805    
     41300   307.53029     -15874.838     -15874.838     -15789.015      2720.3859      18709.293    
     41400   296.60701     -15873.905     -15873.905     -15791.13       295.97195      18716.916    
     41500   298.44444     -15876.342     -15876.342     -15793.054     -2560.5828      18723.912    
     41600   301.48207     -15879.065     -15879.065     -15794.929     -1094.9274      18710.426    
     41700   290.02162     -15879.108     -15879.108     -15798.171      2253.6485      18692.32     
     41800   293.09621     -15878.617     -15878.617     -15796.821      1830.1718      18697.38     
     41900   299.9094      -15878.608     -15878.608     -15794.912     -1644.0008      18719.013    
     42000   303.08369     -15878.616     -15878.616     -15794.034     -2343.2983      18727.401    
     42100   300.66527     -15878.858     -15878.858     -15794.951      929.91314      18715.751    
     42200   294.72421     -15880.158     -15880.158     -15797.908      2676.9056      18709.909    
     42300   295.56372     -15881.769     -15881.769     -15799.286     -140.08379      18725.745    
     42400   302.45415     -15881.823     -15881.823     -15797.416     -2757.1438      18742.26     
     42500   306.42813     -15879.641     -15879.641     -15794.126     -775.00085      18739.016    
     42600   296.153       -15876.912     -15876.912     -15794.264      2618.4717      18728.834    
     42700   301.10458     -15876.331     -15876.331     -15792.301      1660.9951      18738.36     
     42800   310.15283     -15876.07      -15876.07      -15789.515     -2258.9451      18761.738    
     42900   298.7904      -15874.511     -15874.511     -15791.126     -2507.7956      18765.354    
     43000   297.70911     -15874.369     -15874.369     -15791.286      1547.3439      18744.552    
     43100   305.089       -15875.961     -15875.961     -15790.819      3152.2304      18732.555    
     43200   301.11462     -15876.927     -15876.927     -15792.894     -671.45541      18746.144    
     43300   293.37812     -15877.023     -15877.023     -15795.149     -3606.8296      18755.735    
     43400   296.94942     -15877.202     -15877.202     -15794.332     -479.11718      18735.731    
     43500   300.63639     -15876.792     -15876.792     -15792.893      3794.4396      18710.669    
     43600   303.38553     -15876.417     -15876.417     -15791.751      1802.4957      18716.75     
     43700   303.76893     -15877.036     -15877.036     -15792.262     -3565.8064      18739.493    
     43800   293.14667     -15877.88      -15877.88      -15796.07      -3165.6816      18733.796    
     43900   295.41588     -15878.363     -15878.363     -15795.92       2917.5342      18701.042    
     44000   302.35749     -15878.092     -15878.092     -15793.712      4566.7253      18690.479    
     44100   301.81344     -15877.282     -15877.282     -15793.054     -1749.0873      18719.35     
     44200   297.73353     -15876.331     -15876.331     -15793.242     -5710.4555      18737.895    
     44300   297.27656     -15875.818     -15875.818     -15792.856      62.181851      18709.584    
     44400   299.55387     -15875.614     -15875.614     -15792.016      6554.2958      18679.304    
     44500   303.00223     -15875.808     -15875.808     -15791.248      2062.7541      18704.146    
     44600   300.37911     -15875.545     -15875.545     -15791.718     -6606.5955      18751.416    
     44700   291.65373     -15875.463     -15875.463     -15794.07      -4441.1598      18745.648    
     44800   296.80891     -15876.507     -15876.507     -15793.676      5841.2699      18700.053    
     44900   311.50817     -15877.522     -15877.522     -15790.589      6598.6647      18702.21     
     45000   303.10098     -15877.175     -15877.175     -15792.587     -4098.2973      18760.499    
     45100   297.31316     -15877.136     -15877.136     -15794.164     -7979.4638      18783.707    
     45200   302.21719     -15878.466     -15878.466     -15794.126      1629.928       18737.04     
     45300   301.47198     -15879.143     -15879.143     -15795.011      8152.8741      18704.956    
     45400   291.63257     -15878.943     -15878.943     -15797.556      798.15755      18740.516    
     45500   295.55428     -15879.125     -15879.125     -15796.644     -6777.5767      18777.016    
     45600   310.03714     -15879.64      -15879.64      -15793.117     -2592.4992      18755.065    
     45700   298.95028     -15878.19      -15878.19      -15794.761      4652.6586      18718.667    
     45800   290.56415     -15876.171     -15876.171     -15795.083      3184.0591      18725.973    
     45900   299.3706      -15875.467     -15875.467     -15791.921     -2681.1764      18753.69     
     46000   302.94367     -15875.753     -15875.753     -15791.21      -3163.2403      18751.575    
     46100   300.75629     -15876.23      -15876.23      -15792.297      1178.7679      18723.642    
     46200   295.35688     -15876.492     -15876.492     -15794.066      2899.5203      18708.538    
     46300   297.84391     -15877.427     -15877.427     -15794.307     -148.72771      18717.705    
     46400   309.48521     -15878.642     -15878.642     -15792.273     -2559.0221      18725.472    
     46500   301.88829     -15878.057     -15878.057     -15793.809     -646.64738      18713.571    
     46600   289.95157     -15876.778     -15876.778     -15795.861      2157.3844      18698.52     
     46700   297.5633      -15876.452     -15876.452     -15793.41       1278.6868      18702.911    
     46800   300.51109     -15875.727     -15875.727     -15791.862     -1607.0813      18718.846    
     46900   298.68445     -15874.743     -15874.743     -15791.388     -1694.3525      18722.784    
     47000   302.40372     -15874.663     -15874.663     -15790.271      1041.4232      18713.37     
     47100   310.13201     -15875.522     -15875.522     -15788.973      1962.39        18712.589    
     47200   300.75462     -15876.238     -15876.238     -15792.306     -404.0979       18726.755    
     47300   295.72594     -15876.906     -15876.906     -15794.377     -2096.5246      18737.618    
     47400   301.29433     -15877.99      -15877.99      -15793.907     -253.77087      18731.749    
     47500   303.15799     -15878.264     -15878.264     -15793.661      2030.1238      18725.472    
     47600   292.01568     -15877.02      -15877.02      -15795.526      906.62688      18737.165    
     47700   293.37656     -15876.633     -15876.633     -15794.759     -1760.4475      18755.216    
     47800   307.65873     -15877.426     -15877.426     -15791.567     -1527.3538      18756.49     
     47900   301.83682     -15877.045     -15877.045     -15792.811      1292.6468      18743.225    
     48000   295.36314     -15876.696     -15876.696     -15794.268      1972.6185      18739.414    
     48100   300.55741     -15877.263     -15877.263     -15793.386     -731.50046      18750.828    
     48200   309.57813     -15876.447     -15876.447     -15790.052     -2327.8565      18757.204    
     48300   306.8455      -15873.984     -15873.984     -15788.352     -7.2390955      18744.478    
     48400   294.07537     -15873.081     -15873.081     -15791.013      2503.7411      18727.929    
     48500   294.9769      -15875.348     -15875.348     -15793.028      814.41993      18729.064    
     48600   303.09614     -15878.148     -15878.148     -15793.562     -2506.0856      18738.168    
     48700   296.43248     -15879.098     -15879.098     -15796.372     -1732.637       18728.704    
     48800   293.16843     -15879.093     -15879.093     -15797.278      2282.5067      18705.139    
     48900   302.63134     -15879.173     -15879.173     -15794.717      2791.575       18699.749    
     49000   305.08773     -15878.763     -15878.763     -15793.621     -1669.4086      18719.359    
     49100   295.74808     -15877.601     -15877.601     -15795.066     -3803.0631      18728.632    
     49200   292.03667     -15877.089     -15877.089     -15795.589      681.41768      18705.889    
     49300   307.77859     -15877.594     -15877.594     -15791.701      4683.1752      18686.877    
     49400   304.044       -15876.78      -15876.78      -15791.93       770.1156       18708.211    
     49500   291.17783     -15875.138     -15875.138     -15793.878     -5122.6012      18741.188    
     49600   299.55461     -15875.54      -15875.54      -15791.943     -2516.5165      18732.39     
     49700   308.7676      -15876.301     -15876.301     -15790.133      4988.7864      18700.066    
     49800   301.45281     -15875.818     -15875.818     -15791.69       4355.4466      18708.404    
     49900   297.56858     -15875.436     -15875.436     -15792.392     -4025.2159      18754.746    
     50000   300.33518     -15875.715     -15875.715     -15791.9       -5913.9457      18768.314    
     50100   303.50678     -15875.908     -15875.908     -15791.208      2281.4303      18732.061    
     50200   301.00999     -15875.241     -15875.241     -15791.237      6801.5028      18714.572    
     50300   296.9741      -15875.059     -15875.059     -15792.182     -195.98581      18751.946    
     50400   301.47091     -15876.151     -15876.151     -15792.019     -6729.5346      18784.599    
     50500   302.67638     -15877.378     -15877.378     -15792.909     -1955.5013      18758.85     
     50600   293.12789     -15877.483     -15877.483     -15795.679      5869.2906      18717.537    
     50700   295.63854     -15877.639     -15877.639     -15795.135      3589.9423      18726.25     
     50800   307.92983     -15878.222     -15878.222     -15792.287     -4397.098       18762.674    
     50900   306.56132     -15878.822     -15878.822     -15793.269     -4637.4337      18758.802    
     51000   301.82903     -15879.364     -15879.364     -15795.132      2625.0098      18717.132    
     51100   297.45398     -15879.645     -15879.645     -15796.634      5056.7091      18700.078    
     51200   296.27491     -15879.395     -15879.395     -15796.713     -908.61755      18725.57     
     51300   304.1582      -15878.467     -15878.467     -15793.585     -4875.6674      18742.713    
     51400   304.9109      -15877.087     -15877.087     -15791.995     -610.77721      18718.877    
     51500   297.58512     -15875.861     -15875.861     -15792.813      4363.6899      18691.311    
     51600   297.65284     -15875.492     -15875.492     -15792.425      1859.8545      18701.346    
     51700   310.00379     -15875.074     -15875.074     -15788.56      -3490.6717      18727.716    
     51800   312.53457     -15874.199     -15874.199     -15786.979     -2821.432       18725.616    
     51900   300.44168     -15873.739     -15873.739     -15789.894      2485.052       18700.869    
     52000   297.23927     -15874.062     -15874.062     -15791.111      3492.3206      18698.908    
     52100   301.80404     -15875.128     -15875.128     -15790.902     -1343.3156      18726.856    
     52200   302.57185     -15876.021     -15876.021     -15791.581     -3805.1949      18743.602    
     52300   291.94619     -15876.244     -15876.244     -15794.77       147.33735      18728.201    
     52400   298.09255     -15877.412     -15877.412     -15794.222      3806.114       18713.792    
     52500   308.0344      -15878.291     -15878.291     -15792.327      1030.1741      18731.003    
     52600   293.76878     -15876.609     -15876.609     -15794.627     -3475.9792      18757.049    
     52700   284.48289     -15875.656     -15875.656     -15796.265     -2127.3254      18752.705    
     52800   301.88668     -15877.267     -15877.267     -15793.019      2784.2778      18729.441    
     52900   305.93457     -15878.33      -15878.33      -15792.952      2998.4631      18729.39     
     53000   296.99204     -15878.326     -15878.326     -15795.444     -1825.4115      18754.533    
     53100   296.17137     -15878.898     -15878.898     -15796.245     -3569.8773      18763.285    
     53200   301.78989     -15878.902     -15878.902     -15794.681      701.44391      18741.43     
     53300   306.84926     -15876.314     -15876.314     -15790.681      3749.9115      18726.601    
     53400   300.22732     -15873.73      -15873.73      -15789.945      416.09348      18740.546    
     53500   302.64364     -15874.443     -15874.443     -15789.983     -3664.1616      18753.26     
     53600   303.8411      -15876.772     -15876.772     -15791.978     -1574.3611      18732.982    
     53700   294.7392      -15877.888     -15877.888     -15795.634      3285.3389      18701.695    
     53800   297.22843     -15877.655     -15877.655     -15794.706      2630.7365      18702.447    
     53900   302.65261     -15877.002     -15877.002     -15792.54      -2488.538       18727.299    
     54000   305.06127     -15876.92      -15876.92      -15791.785     -3402.4746      18730.606    
     54100   298.61632     -15877.521     -15877.521     -15794.185      1489.2019      18703.615    
     54200   291.98645     -15877.531     -15877.531     -15796.046      3933.6182      18689.889    
     54300   295.31099     -15876.524     -15876.524     -15794.111     -284.77649      18711.813    
     54400   297.70103     -15875.53      -15875.53      -15792.45      -4046.5614      18732.935    
     54500   303.56948     -15876.229     -15876.229     -15791.511     -998.5373       18720.433    
     54600   303.59439     -15877.271     -15877.271     -15792.546      3853.2695      18699.72     
     54700   291.07395     -15876.543     -15876.543     -15795.312      2272.4831      18712.392    
     54800   293.32101     -15875.59      -15875.59      -15793.732     -3221.6998      18745.888    
     54900   301.62452     -15876.033     -15876.033     -15791.858     -3379.8705      18751.836    
     55000   304.59895     -15877.265     -15877.265     -15792.26       2236.0624      18727.361    
     55100   298.70562     -15878.118     -15878.118     -15794.757      4241.2816      18719.7      
     55200   295.96642     -15878.691     -15878.691     -15796.095     -1031.7476      18747.475    
     55300   300.05112     -15878.91      -15878.91      -15795.174     -4808.1332      18767.621    
     55400   311.51824     -15878.482     -15878.482     -15791.546     -492.88741      18747.824    
     55500   308.88656     -15877.233     -15877.233     -15791.031      5033.3541      18721.336    
     55600   295.63092     -15876.459     -15876.459     -15793.957      2154.1283      18734.335    
     55700   297.51414     -15876.573     -15876.573     -15793.545     -4742.0181      18766.485    
     55800   300.31873     -15876.136     -15876.136     -15792.325     -3899.7493      18759.957    
     55900   300.92095     -15874.867     -15874.867     -15790.888      3883.8398      18719.5      
     56000   307.72715     -15873.563     -15873.563     -15787.685      5475.484       18710.199    
     56100   308.19023     -15872.533     -15872.533     -15786.525     -2439.7628      18746.654    
     56200   294.97609     -15872.696     -15872.696     -15790.377     -6555.5787      18761.486    
     56300   301.0941      -15875.264     -15875.264     -15791.237      417.36582      18719.749    
     56400   306.30267     -15877.62      -15877.62      -15792.14       6996.4699      18681.343    
     56500   297.68633     -15878.188     -15878.188     -15795.112      1748.7453      18703.679    
     56600   296.23604     -15878.186     -15878.186     -15795.515     -6362.5085      18742.726    
     56700   300.65418     -15878.352     -15878.352     -15794.447     -3665.06        18729.395    
     56800   302.31736     -15877.742     -15877.742     -15793.373      5024.0048      18688.226    
     56900   307.98537     -15876.723     -15876.723     -15790.773      4968.9884      18691.92     
     57000   304.89612     -15875.13      -15875.13      -15790.042     -3121.5512      18736.267    
     57100   293.77608     -15874.063     -15874.063     -15792.078     -5360.6834      18751.115    
     57200   298.75493     -15875.399     -15875.399     -15792.025      1190.6368      18720.646    
     57300   313.2302      -15877.261     -15877.261     -15789.847      5038.1748      18703.834    
     57400   301.55453     -15877.269     -15877.269     -15793.113      405.84946      18729.279    
     57500   294.04951     -15877.005     -15877.005     -15794.944     -4185.2542      18754.828    
     57600   301.30614     -15877.624     -15877.624     -15793.537     -1528.8509      18743.883    
     57700   305.01186     -15877.548     -15877.548     -15792.428      3141.2964      18723.718    
     57800   295.34103     -15876.457     -15876.457     -15794.035      2184.5086      18731.654    
     57900   289.55798     -15876.474     -15876.474     -15795.666     -2072.6787      18753.854    
     58000   307.38865     -15878.206     -15878.206     -15792.422     -2527.6701      18755.654    
     58100   308.83867     -15878.858     -15878.858     -15792.669      1082.3674      18736.595    
     58200   297.38929     -15877.993     -15877.993     -15795          2564.4         18727.937    
     58300   296.75266     -15877.542     -15877.542     -15794.726     -227.05265      18739.398    
     58400   303.63892     -15877.831     -15877.831     -15793.094     -2410.2376      18747.074    
     58500   302.34358     -15877.301     -15877.301     -15792.925     -532.79888      18735.405    
     58600   288.43465     -15876.187     -15876.187     -15795.693      2098.0954      18719.961    
     58700   295.28316     -15876.95      -15876.95      -15794.544      1132.6564      18721.213    
     58800   308.8292      -15878.31      -15878.31      -15792.124     -1651.9668      18731.141    
     58900   299.79723     -15877.611     -15877.611     -15793.946     -1601.0325      18728.568    
     59000   292.20092     -15876.117     -15876.117     -15794.572      1110.2882      18714.595    
     59100   299.89827     -15876.022     -15876.022     -15792.329      1909.6265      18709.446    
     59200   303.15776     -15876.363     -15876.363     -15791.76      -493.91231      18719.056    
     59300   297.20472     -15875.421     -15875.421     -15792.479     -2051.9822      18726.218    
     59400   297.84762     -15874.9       -15874.9       -15791.779     -126.52037      18717.798    
     59500   314.47591     -15876.296     -15876.296     -15788.535      2033.783       18708.22     
     59600   307.56777     -15877.452     -15877.452     -15791.618      765.99208      18714.335    
     59700   300.59629     -15878.05      -15878.05      -15794.161     -1889.0204      18728.853    
     59800   297.1351      -15878.317     -15878.317     -15795.395     -1350.4738      18729.744    
     59900   295.992       -15877.848     -15877.848     -15795.245      1550.0397      18720.604    
     60000   301.27988     -15876.74      -15876.74      -15792.661      1922.182       18724.432    
     60100   302.40671     -15875.226     -15875.226     -15790.833     -1048.2534      18743.674    
     60200   301.17711     -15874.613     -15874.613     -15790.562     -2448.4191      18752.828    
     60300   299.2138      -15875.421     -15875.421     -15791.918      308.97113      18739.443    
     60400   291.65665     -15876.18      -15876.18      -15794.786      2886.9342      18727.07     
     60500   298.5581      -15876.899     -15876.899     -15793.58       636.88043      18740.114    
     60600   306.24135     -15876.891     -15876.891     -15791.427     -3232.4582      18761.821    
     60700   298.63353     -15875.76      -15875.76      -15792.419     -1992.7652      18756.672    
     60800   288.61057     -15875.973     -15875.973     -15795.43       3395.1053      18727.172    
     60900   293.38147     -15878.281     -15878.281     -15796.406      3853.5894      18719.468    
     61000   306.6496      -15878.571     -15878.571     -15792.994     -3070.0286      18751.107    
     61100   298.71998     -15875.649     -15875.649     -15792.284     -5988.7498      18765.351    
     61200   298.46654     -15874.756     -15874.756     -15791.463      1753.4908      18723.957    
     61300   318.12233     -15876.342     -15876.342     -15787.563      7737.7548      18688.814    
     61400   305.87941     -15876.058     -15876.058     -15790.695      466.5245       18719.252    
     61500   294.29117     -15874.363     -15874.363     -15792.235     -8186.3476      18760.512    
     61600   299.49123     -15874.304     -15874.304     -15790.724     -3002.7824      18733.492    
     61700   306.21688     -15874.345     -15874.345     -15788.889      7355.9494      18681.262    
     61800   299.85121     -15873.684     -15873.684     -15790.003      5059.934       18691.631    
     61900   294.50884     -15874.293     -15874.293     -15792.104     -5447.4103      18742.341    
     62000   299.6691      -15876.79      -15876.79      -15793.161     -6241.7801      18744.93     
     62100   296.37569     -15878.756     -15878.756     -15796.046      3186.2196      18698.167    
     62200   293.09901     -15879.155     -15879.155     -15797.359      6597.4883      18683.997    
     62300   301.31702     -15879.088     -15879.088     -15794.999     -938.84449      18725.551    
     62400   306.13771     -15878.93      -15878.93      -15793.495     -6063.985       18755.876    
     62500   300.95751     -15878.717     -15878.717     -15794.728     -952.81187      18735.382    
     62600   297.77828     -15878.235     -15878.235     -15795.134      5129.0878      18710.859    
     62700   300.35652     -15878.232     -15878.232     -15794.411      2326.7403      18729.367    
     62800   305.90754     -15878.599     -15878.599     -15793.229     -3884.0153      18762.784    
     62900   302.73704     -15878.937     -15878.937     -15794.451     -3271.9941      18759.778    
     63000   293.79107     -15879.445     -15879.445     -15797.456      2526.0042      18729.515    
     63100   297.609       -15879.954     -15879.954     -15796.9        3746.0525      18722.642    
     63200   301.96234     -15878.726     -15878.726     -15794.457     -1171.8866      18747.974    
     63300   299.96229     -15876.239     -15876.239     -15792.528     -3778.4035      18762.64     
     63400   303.63966     -15874.962     -15874.962     -15790.225     -57.31659       18744.023    
     63500   315.29219     -15873.852     -15873.852     -15785.862      3448.3738      18725.621    
     63600   302.12686     -15871.735     -15871.735     -15787.42       1059.7872      18734.923    
     63700   298.55442     -15871.518     -15871.518     -15788.2       -2962.485       18750.75     
     63800   304.0503      -15873.166     -15873.166     -15788.314     -1878.0144      18739.561    
     63900   301.07709     -15874.74      -15874.74      -15790.717      2246.9765      18713.293    
     64000   299.60947     -15876.759     -15876.759     -15793.146      2479.8385      18707.05     
     64100   304.78554     -15879.15      -15879.15      -15794.093     -1384.9468      18721.92     
     64200   303.28702     -15880.739     -15880.739     -15796.1       -2793.5363      18725.702    
     64300   297.2787      -15880.628     -15880.628     -15797.665      475.92394      18708.873    
     64400   293.77548     -15879.023     -15879.023     -15797.039      2896.6139      18699.178    
     64500   297.01129     -15877.265     -15877.265     -15794.377      436.6418       18714.818    
     64600   297.01707     -15875.744     -15875.744     -15792.855     -2673.3126      18733.385    
     64700   299.78561     -15874.892     -15874.892     -15791.23      -1252.6969      18729.39     
     64800   304.41757     -15874.842     -15874.842     -15789.887      2277.2075      18715.141    
     64900   300.43163     -15874.721     -15874.721     -15790.879      1923.3613      18720.549    
     65000   289.14045     -15875.026     -15875.026     -15794.334     -1657.5271      18741.555    
     65100   300.33578     -15876.976     -15876.976     -15793.16      -2447.5808      18748.826    
     65200   309.15689     -15878.578     -15878.578     -15792.3        911.021        18735.616    
     65300   297.87584     -15878.75      -15878.75      -15795.621      2784.1098      18729.049    
     65400   297.39098     -15879.029     -15879.029     -15796.035     -107.63555      18745.075    
     65500   300.25814     -15878.824     -15878.824     -15795.03      -2919.2861      18759.931    
     65600   299.24174     -15877.258     -15877.258     -15793.747     -860.15634      18751.069    
     65700   300.22809     -15875.16      -15875.16      -15791.375      2852.3397      18734.274    
     65800   301.97887     -15873.241     -15873.241     -15788.967      1858.7284      18739.432    
     65900   302.81072     -15872.79      -15872.79      -15788.284     -2598.3027      18758.883    
     66000   306.34867     -15874.751     -15874.751     -15789.258     -3018.1201      18755.666    
     66100   305.68355     -15876.347     -15876.347     -15791.039      2016.8056      18725.708    
     66200   297.30046     -15875.95      -15875.95      -15792.982      4329.8272      18710.719    
     66300   297.33102     -15876.344     -15876.344     -15793.367     -935.93916      18732.459    
     66400   305.29413     -15877.283     -15877.283     -15792.084     -5546.9575      18750.775    
     66500   300.22742     -15876.481     -15876.481     -15792.696     -803.0052       18723.554    
     66600   289.39302     -15875.344     -15875.344     -15794.582      6435.7767      18684.128    
     66700   302.1771      -15876.2       -15876.2       -15791.871      3045.7442      18697.319    
     66800   306.67435     -15876.327     -15876.327     -15790.743     -6277.9644      18742.207    
     66900   297.36167     -15875.46      -15875.46      -15792.475     -5364.8445      18738.581    
     67000   301.05331     -15876.825     -15876.825     -15792.809      5129.7323      18687.382    
     67100   305.03953     -15878.916     -15878.916     -15793.788      7234.11        18677.744    
     67200   288.62613     -15878.776     -15878.776     -15798.228     -2909.5372      18729.893    
     67300   291.84308     -15878.057     -15878.057     -15796.612     -7928.8213      18759.522    
     67400   303.40909     -15878.54      -15878.54      -15793.867      352.34615      18723.254    
     67500   304.01438     -15878.352     -15878.352     -15793.509      7512.8405      18693.541    
     67600   293.03739     -15877.016     -15877.016     -15795.237      1846.422       18727.001    
     67700   295.74128     -15876.2       -15876.2       -15793.667     -6012.8381      18770.795    
     67800   306.03894     -15875.882     -15875.882     -15790.475     -3367.6383      18761.246    
     67900   300.3938      -15875.131     -15875.131     -15791.299      4178.9267      18726.069    
     68000   300.23848     -15876.363     -15876.363     -15792.574      4034.3768      18726.774    
     68100   299.46364     -15878.823     -15878.823     -15795.251     -2443.6392      18756.916    
     68200   295.12227     -15880.494     -15880.494     -15798.133     -4150.6943      18763.071    
     68300   298.54078     -15881.109     -15881.109     -15797.794      892.58576      18736.045    
     68400   298.0265      -15879.939     -15879.939     -15796.768      3913.1605      18719.668    
     68500   299.28755     -15878.117     -15878.117     -15794.594      353.6495       18736.315    
     68600   302.29317     -15876.558     -15876.558     -15792.196     -3424.8307      18753.732    
     68700   299.12696     -15875.47      -15875.47      -15791.992     -1382.4887      18740.336    
     68800   301.68978     -15875.95      -15875.95      -15791.757      2738.4098      18714.312    
     68900   303.27293     -15877.202     -15877.202     -15792.567      2119.1747      18710.317    
     69000   291.75621     -15876.905     -15876.905     -15795.484     -1934.9961      18724.401    
     69100   292.10516     -15876.064     -15876.064     -15794.545     -2610.5841      18724.446    
     69200   301.54648     -15875.907     -15875.907     -15791.754      1076.7145      18704.291    
     69300   301.00771     -15875.673     -15875.673     -15791.67       2888.5154      18694.318    
     69400   297.88563     -15875.198     -15875.198     -15792.066     -172.34912      18710.289    
     69500   299.73208     -15875.048     -15875.048     -15791.401     -2861.9         18726.602    
     69600   306.65953     -15875.051     -15875.051     -15789.471     -683.66542      18720.605    
     69700   304.07197     -15874.764     -15874.764     -15789.906      2648.8699      18708.988    
     69800   295.62946     -15875.796     -15875.796     -15793.294      1495.4426      18717.346    
     69900   301.99202     -15878.404     -15878.404     -15794.127     -2225.9661      18737.389    
     70000   301.46346     -15879.749     -15879.749     -15795.619     -2208.8334      18739.804    
     70100   291.61646     -15879.243     -15879.243     -15797.861      1572.118       18724.981    
     70200   301.69844     -15878.987     -15878.987     -15794.791      2824.4302      18723.361    
     70300   307.07997     -15878.05      -15878.05      -15792.353     -708.70666      18744.943    
     70400   293.11447     -15875.897     -15875.897     -15794.097     -3176.4572      18760.205    
     70500   295.51497     -15875.365     -15875.365     -15792.895     -287.87815      18747.746    
     70600   307.64366     -15876.099     -15876.099     -15790.244      3196.2749      18731.734    
     70700   301.9698      -15875.843     -15875.843     -15791.571      1285.0431      18741.992    
     70800   294.73389     -15875.313     -15875.313     -15793.061     -2944.6344      18763.006    
     70900   300.16344     -15876.061     -15876.061     -15792.294     -2318.4366      18758.069    
     71000   303.80097     -15877.003     -15877.003     -15792.221      2348.308       18731.517    
     71100   301.17633     -15877.264     -15877.264     -15793.214      3224.0411      18722.829    
     71200   298.26098     -15877.511     -15877.511     -15794.275     -1461.3331      18740.851    
     71300   296.77645     -15877.424     -15877.424     -15794.602     -3947.2047      18748.43     
     71400   302.57253     -15876.916     -15876.916     -15792.476      317.81226      18723.885    
     71500   306.14532     -15875.771     -15875.771     -15790.334      4526.0205      18700.763    
     71600   297.98295     -15874.443     -15874.443     -15791.284      1093.8585      18715.138    
     71700   295.06498     -15874.723     -15874.723     -15792.378     -4801.5462      18740.566    
     71800   302.63141     -15876.284     -15876.284     -15791.828     -2882.639       18727.239    
     71900   304.40504     -15876.598     -15876.598     -15791.647      4824.1585      18687.913    
     72000   294.82358     -15876.127     -15876.127     -15793.85       5195.2987      18686.36     
     72100   295.92806     -15876.724     -15876.724     -15794.139     -4177.1283      18733.465    
     72200   308.63131     -15877.552     -15877.552     -15791.421     -7775.5595      18753.9      
     72300   305.1271      -15877.031     -15877.031     -15791.879      2431.8459      18707.527    
     72400   290.71763     -15876.427     -15876.427     -15795.296      10093.437      18674.01     
     72500   301.18643     -15878.329     -15878.329     -15794.276      360.93391      18725.063    
     72600   305.28153     -15879.238     -15879.238     -15794.042     -10560.355      18783.455    
     72700   293.0176      -15878.177     -15878.177     -15796.404     -3630.4908      18754.023    
     72800   293.41454     -15877.123     -15877.123     -15795.239      9097.7148      18696.082    
     72900   301.69351     -15877.58      -15877.58      -15793.386      5756.7464      18714.582    
     73000   302.07799     -15878.038     -15878.038     -15793.737     -6124.2896      18774.015    
     73100   295.49002     -15877.67      -15877.67      -15795.206     -6324.4992      18775.763    
     73200   295.05779     -15877.224     -15877.224     -15794.882      3098.2049      18730.011    
     73300   306.33114     -15877.148     -15877.148     -15791.659      5797.5004      18717.766    
     73400   303.66618     -15876.551     -15876.551     -15791.806     -855.54647      18750.774    
     73500   296.44424     -15875.898     -15875.898     -15793.168     -4943.1598      18769.844    
[...]
    181900   298.18549     -15876.741     -15876.741     -15793.525     -350.36798      18738.557    
    182000   300.31683     -15877.015     -15877.015     -15793.205      5151.9081      18709.11     
    182100   300.91451     -15875.545     -15875.545     -15791.568      1958.5936      18723.767    
    182200   302.35155     -15872.875     -15872.875     -15788.497     -4614.4541      18756.771    
    182300   305.02124     -15872.483     -15872.483     -15787.36      -3412.3521      18749.178    
    182400   305.15497     -15874.841     -15874.841     -15789.68       3571.712       18710.334    
    182500   301.76015     -15877.121     -15877.121     -15792.908      4498.5316      18702.258    
    182600   298.9468      -15877.521     -15877.521     -15794.094     -2149.9464      18734.673    
    182700   294.71075     -15876.729     -15876.729     -15794.483     -5011.2936      18749.989    
    182800   302.74233     -15876.563     -15876.563     -15792.076      580.07465      18722.886    
    182900   307.30235     -15876.218     -15876.218     -15790.459      5022.4365      18700.678    
    183000   295.27708     -15874.819     -15874.819     -15792.415      882.77026      18720.716    
    183100   289.96325     -15874.409     -15874.409     -15793.488     -4446.3566      18746.505    
    183200   309.90672     -15876.201     -15876.201     -15789.715     -2166.8277      18734.1      
    183300   309.86935     -15877.414     -15877.414     -15790.938      3474.6513      18704.824    
    183400   298.41922     -15877.73      -15877.73      -15794.449      2972.436       18707.263    
    183500   296.9048      -15878.161     -15878.161     -15795.303     -2183.0609      18734.453    
    183600   299.62985     -15878.037     -15878.037     -15794.419     -3196.5228      18742.634    
    183700   303.86838     -15877.067     -15877.067     -15792.266      968.09221      18725.776    
    183800   306.1055      -15875.951     -15875.951     -15790.525      2991.3063      18718.602    
    183900   301.17566     -15875.465     -15875.465     -15791.415     -9.4200308      18734.186    
    184000   292.36689     -15875.919     -15875.919     -15794.328     -2502.123       18745.624    
    184100   299.87931     -15877.481     -15877.481     -15793.793     -712.07351      18735.897    
    184200   308.76102     -15878.491     -15878.491     -15792.324      1916.8766      18723.164    
    184300   294.69258     -15877.502     -15877.502     -15795.261      1156.3857      18727.969    
    184400   288.89752     -15876.768     -15876.768     -15796.144     -1323.6507      18741.623    
    184500   302.57855     -15877.646     -15877.646     -15793.205     -1402.0209      18742.755    
    184600   304.58313     -15878.16      -15878.16      -15793.16       741.30959      18731.625    
    184700   297.03235     -15877.893     -15877.893     -15794.999      1459.0022      18726.258    
    184800   295.41957     -15877.804     -15877.804     -15795.361     -244.72787      18731.527    
    184900   307.79011     -15877.239     -15877.239     -15791.343     -1409.1338      18735.148    
    185000   301.83059     -15874.555     -15874.555     -15790.322     -165.41195      18728.385    
    185100   295.02792     -15872.757     -15872.757     -15790.423      1267.727       18720.729    
    185200   307.48327     -15874.124     -15874.124     -15788.314      543.0311       18722.437    
    185300   308.7042      -15875.821     -15875.821     -15789.67      -1108.583       18727.909    
    185400   297.61376     -15876.91      -15876.91      -15793.854     -836.16909      18724.006    
    185500   299.46082     -15877.951     -15877.951     -15794.379      893.50308      18714.437    
    185600   299.04293     -15877.943     -15877.943     -15794.489      1115.4987      18713.633    
    185700   298.46933     -15877.196     -15877.196     -15793.901     -544.78111      18722.758    
    185800   303.66264     -15876.478     -15876.478     -15791.734     -1297.3979      18727.381    
    185900   306.22471     -15875.959     -15875.959     -15790.5        147.77246      18720.958    
    186000   296.25189     -15875.849     -15875.849     -15793.174      1376.5018      18715.24     
    186100   292.2772      -15876.606     -15876.606     -15795.04       287.85536      18721.456    
    186200   300.6243      -15877.221     -15877.221     -15793.325     -1334.4354      18732.289    
    186300   301.79396     -15876.826     -15876.826     -15792.604     -728.73437      18733.567    
    186400   301.05661     -15876.897     -15876.897     -15792.88       1197.9663      18727.665    
    186500   301.85354     -15877.677     -15877.677     -15793.438      1168.3041      18729.649    
    186600   298.12427     -15877.761     -15877.761     -15794.563     -968.38439      18741.518    
    186700   294.16665     -15877.321     -15877.321     -15795.228     -1662.1772      18746.314    
    186800   304.84528     -15877.769     -15877.769     -15792.695      544.07916      18735.87     
    186900   308.09005     -15877.849     -15877.849     -15791.87       2167.7751      18727.252    
    187000   293.56547     -15876.552     -15876.552     -15794.626      81.153771      18736.866    
    187100   294.30126     -15876.203     -15876.203     -15794.072     -2678.8952      18749.766    
    187200   306.20548     -15877.151     -15877.151     -15791.697     -1063.7113      18740.552    
    187300   302.20147     -15876.786     -15876.786     -15792.449      3123.7979      18719.221    
    187400   295.15795     -15875.372     -15875.372     -15793.001      2445.3121      18722.31     
    187500   300.4675      -15875.239     -15875.239     -15791.387     -3139.8307      18747.881    
    187600   305.88544     -15875.519     -15875.519     -15790.155     -4044.8043      18749.051    
    187700   292.50184     -15874.988     -15874.988     -15793.358      2341.1932      18713.844    
    187800   290.16277     -15875.95      -15875.95      -15794.973      5328.1984      18695.134    
    187900   305.9614      -15878.282     -15878.282     -15792.897     -845.80726      18721.921    
    188000   303.84825     -15878.778     -15878.778     -15793.983     -5838.6019      18744.851    
    188100   294.20171     -15878.138     -15878.138     -15796.035     -984.34575      18720.705    
    188200   298.02432     -15878.294     -15878.294     -15795.123      5671.0981      18688.422    
    188300   303.62224     -15879.118     -15879.118     -15794.385      2724.1275      18703.418    
    188400   300.52015     -15879.075     -15879.075     -15795.208     -4754.7331      18741.937    
    188500   294.19043     -15877.971     -15877.971     -15795.871     -4098.4794      18741.346    
    188600   299.17696     -15876.574     -15876.574     -15793.082      3423.619       18708.052    
    188700   303.72624     -15875.096     -15875.096     -15790.335      4977.0942      18704.373    
    188800   298.22529     -15874.045     -15874.045     -15790.819     -1827.2877      18740.535    
    188900   299.75756     -15874.259     -15874.259     -15790.605     -5244.9118      18759.184    
    189000   305.17706     -15875.578     -15875.578     -15790.412      122.54956      18733.916    
    189100   299.8208      -15876.94      -15876.94      -15793.268      4977.0817      18711.095    
    189200   296.67616     -15878.131     -15878.131     -15795.337      1335.6256      18730.105    
    189300   300.0034      -15878.798     -15878.798     -15795.075     -4180.8514      18758.467    
    189400   301.44892     -15878.835     -15878.835     -15794.709     -2470.6807      18750.82     
    189500   297.72291     -15877.861     -15877.861     -15794.775      3115.0549      18724.063    
    189600   298.98743     -15877.048     -15877.048     -15793.609      3166.7523      18723.625    
    189700   305.91248     -15876.969     -15876.969     -15791.597     -1936.0331      18747.068    
    189800   301.85284     -15876.633     -15876.633     -15792.394     -3472.7348      18752.322    
    189900   291.99804     -15876.486     -15876.486     -15794.998      742.5321       18729.3      
    190000   297.71096     -15876.943     -15876.943     -15793.86       3432.6591      18714.922    
    190100   309.39125     -15876.576     -15876.576     -15790.233      295.85755      18730.569    
    190200   300.70315     -15875.128     -15875.128     -15791.21      -3044.7943      18746.227    
    190300   297.94197     -15875.077     -15875.077     -15791.929     -1212.3721      18734.047    
    190400   302.93638     -15876.344     -15876.344     -15791.803      2451.4279      18711.474    
    190500   297.13982     -15876.614     -15876.614     -15793.691      1834.2255      18711.313    
    190600   289.87068     -15876.522     -15876.522     -15795.627     -1713.4882      18727.399    
    190700   303.43958     -15877.61      -15877.61      -15792.929     -2194.1279      18729.37     
    190800   306.31747     -15877.807     -15877.807     -15792.322      960.08285      18714.253    
    190900   296.81813     -15876.485     -15876.485     -15793.651      2349.2667      18709.172    
    191000   296.66984     -15875.843     -15875.843     -15793.05      -195.84899      18723.887    
    191100   303.96165     -15876.653     -15876.653     -15791.826     -2263.6852      18736.102    
    191200   304.09446     -15877.646     -15877.646     -15792.782     -502.45271      18729.347    
    191300   299.22018     -15878.125     -15878.125     -15794.621      2004.1718      18718.502    
    191400   299.32244     -15878.309     -15878.309     -15794.777      1066.8137      18723.677    
    191500   299.14271     -15877.926     -15877.926     -15794.443     -1587.7053      18736.822    
    191600   300.14139     -15877.056     -15877.056     -15793.295     -1492.4213      18737.778    
    191700   304.71077     -15875.611     -15875.611     -15790.575      1090.1347      18728.686    
    191800   303.48372     -15873.477     -15873.477     -15788.783      1770.528       18729.69     
    191900   302.49275     -15872.494     -15872.494     -15788.077     -532.44248      18743.589    
    192000   305.97348     -15873.345     -15873.345     -15787.956     -1893.3752      18750.656    
    192100   298.50807     -15874.239     -15874.239     -15790.933     -60.081033      18741.098    
    192200   297.27547     -15875.476     -15875.476     -15792.515      1798.0603      18731.334    
    192300   304.26726     -15877.717     -15877.717     -15792.804      586.81624      18734.777    
    192400   297.1577      -15879.105     -15879.105     -15796.176     -1605.7585      18740.934    
    192500   291.95191     -15879.022     -15879.022     -15797.546     -1107.9802      18734.642    
    192600   297.03574     -15878.315     -15878.315     -15795.421      1280.4817      18721.056    
    192700   301.41966     -15877.826     -15877.826     -15793.708      1533.4828      18718.864    
    192800   301.47785     -15877.565     -15877.565     -15793.43      -827.85107      18729.343    
    192900   299.75276     -15877.821     -15877.821     -15794.168     -1847.0485      18732.094    
    193000   292.07879     -15878.827     -15878.827     -15797.315      269.1664       18718.066    
    193100   293.16528     -15879.967     -15879.967     -15798.152      2034.2176      18706.854    
    193200   303.6597      -15880.048     -15880.048     -15795.305      388.89706      18715.337    
    193300   301.34094     -15878.56      -15878.56      -15794.464     -2042.223       18729.729    
    193400   295.49584     -15876.854     -15876.854     -15794.389     -1088.6859      18727.895    
    193500   297.86934     -15876.199     -15876.199     -15793.072      1928.5754      18715.176    
    193600   302.60907     -15876.31      -15876.31      -15791.86       1857.2395      18716.509    
    193700   301.2774      -15876.204     -15876.204     -15792.125     -1609.0383      18734.12     
    193800   293.49923     -15875.835     -15875.835     -15793.928     -2718.5225      18740.398    
    193900   286.70042     -15876.389     -15876.389     -15796.379      981.58261      18722.76     
    194000   303.60328     -15878.055     -15878.055     -15793.328      3537.0118      18712.231    
    194100   305.77273     -15878         -15878         -15792.667      63.85851       18733.107    
    194200   294.6508      -15876.435     -15876.435     -15794.206     -4120.5275      18758.35     
    194300   297.46256     -15876.28      -15876.28      -15793.267     -1484.3509      18747.917    
    194400   310.5286      -15877.093     -15877.093     -15790.433      4246.746       18719.878    
    194500   299.61513     -15876.931     -15876.931     -15793.316      3017.7718      18723.751    
    194600   291.73152     -15877.206     -15877.206     -15795.792     -3815.7913      18754.383    
    194700   302.68493     -15878.042     -15878.042     -15793.571     -4528.9365      18756.154    
    194800   302.00735     -15876.798     -15876.798     -15792.516      2732.9038      18721.452    
    194900   297.08165     -15875.063     -15875.063     -15792.155      5785.2146      18708.322    
    195000   309.64663     -15876.103     -15876.103     -15789.689     -1129.1697      18741.225    
    195100   309.12561     -15877.36      -15877.36      -15791.092     -6405.883       18763.378    
    195200   297.22466     -15877.373     -15877.373     -15794.426     -868.53137      18731.286    
    195300   298.59822     -15877.571     -15877.571     -15794.24       6333.7228      18691.644    
    195400   302.4716      -15877.494     -15877.494     -15793.082      2784.4738      18706.082    
    195500   299.19467     -15875.528     -15875.528     -15792.031     -5338.5896      18746.197    
    195600   303.21297     -15874.099     -15874.099     -15789.48      -4287.3065      18742.781    
    195700   309.53422     -15874.29      -15874.29      -15787.907      3839.3458      18704.024    
    195800   298.56242     -15874.386     -15874.386     -15791.065      5171.181       18697.553    
    195900   298.03313     -15875.336     -15875.336     -15792.163     -2082.63        18732.956    
    196000   303.47197     -15876.765     -15876.765     -15792.075     -5283.4076      18748.973    
    196100   298.35058     -15877.118     -15877.118     -15793.857      332.27587      18722.95     
    196200   291.32694     -15876.586     -15876.586     -15795.285      4853.2516      18703.333    
    196300   305.42664     -15876.756     -15876.756     -15791.52       1104.6642      18723.789    
    196400   307.28393     -15876.493     -15876.493     -15790.738     -3877.2294      18748.966    
    196500   296.7519      -15875.834     -15875.834     -15793.018     -2110.2583      18740.689    
    196600   296.88072     -15876.144     -15876.144     -15793.293      2770.3329      18717.724    
    196700   306.16889     -15876.969     -15876.969     -15791.526      2650.5839      18720.236    
    196800   310.81414     -15877.315     -15877.315     -15790.575     -1629.3243      18744.074    
    196900   296.5256      -15877.454     -15877.454     -15794.702     -2732.3349      18751.206    
    197000   295.57341     -15878.009     -15878.009     -15795.523      574.80548      18736.126    
    197100   301.41028     -15877.94      -15877.94      -15793.824      2577.9713      18727.478    
    197200   303.05543     -15876.643     -15876.643     -15792.069      246.40985      18740.311    
    197300   300.89946     -15874.59      -15874.59      -15790.617     -2234.7171      18753.286    
    197400   308.78984     -15873.493     -15873.493     -15787.318     -935.35362      18745.82     
    197500   307.47542     -15873.895     -15873.895     -15788.087      1754.2015      18728.367    
    197600   300.80727     -15875.331     -15875.331     -15791.384      1390.864       18724.605    
    197700   302.40297     -15876.95      -15876.95      -15792.558     -1224.1202      18733.268    
    197800   299.48629     -15877.941     -15877.941     -15794.362     -1674.0691      18733.295    
    197900   296.05991     -15878.553     -15878.553     -15795.931      674.81939      18721.432    
    198000   298.28965     -15878.884     -15878.884     -15795.639      1843.2423      18715.918    
    198100   310.94497     -15879.126     -15879.126     -15792.35      -124.56323      18725.227    
    198200   302.48007     -15878.05      -15878.05      -15793.636     -1843.2913      18732.176    
    198300   287.9697      -15875.752     -15875.752     -15795.387     -460.37587      18724.488    
    198400   294.06639     -15874.675     -15874.675     -15792.61       1712.6384      18713.493    
    198500   303.06038     -15875.419     -15875.419     -15790.843      1028.8008      18716.18     
    198600   304.29589     -15876.224     -15876.224     -15791.304     -1421.6601      18729.025    
    198700   294.65294     -15876.126     -15876.126     -15793.897     -1478.1339      18731.639    
    198800   295.98709     -15876.504     -15876.504     -15793.902      997.50928      18722.099    
    198900   309.77981     -15877.491     -15877.491     -15791.04       1833.572       18720.37     
    199000   308.94392     -15877.193     -15877.193     -15790.975     -500.87218      18733.942    
    199100   291.12913     -15876.542     -15876.542     -15795.296     -1992.7142      18741.211    
    199200   299.18005     -15877.507     -15877.507     -15794.014     -109.04643      18730.656    
    199300   307.13037     -15878.12      -15878.12      -15792.408      2032.8678      18719.333    
    199400   296.55457     -15876.953     -15876.953     -15794.193      756.48688      18726.859    
    199500   289.93629     -15876.092     -15876.092     -15795.178     -1852.795       18742.257    
    199600   307.72829     -15876.695     -15876.695     -15790.816     -1402.9542      18743.272    
    199700   304.10881     -15876.179     -15876.179     -15791.31       1541.9434      18731.377    
    199800   294.57658     -15875.233     -15875.233     -15793.025      1943.5045      18731.097    
    199900   299.6572      -15875.715     -15875.715     -15792.089     -1026.9479      18745.427    
    200000   310.7045      -15876.496     -15876.496     -15789.786     -2418.6229      18750.513    
    200004   310.83669     -15876.499     -15876.499     -15789.753     -2507.9195      18750.866    
Loop time of 606.817 on 6 procs for 200000 steps with 2160 atoms

Performance: 1.424 ns/day, 16.856 hours/ns, 329.589 timesteps/s
99.4% CPU use with 6 MPI tasks x 1 OpenMP threads

MPI task timing breakdown:
Section |  min time  |  avg time  |  max time  |%varavg| %total
---------------------------------------------------------------
Pair    | 544.95     | 548.66     | 552.46     |  12.2 | 90.42
Neigh   | 0          | 0          | 0          |   0.0 |  0.00
Comm    | 45.368     | 49.219     | 52.858     |  40.6 |  8.11
Output  | 0.14825    | 0.16109    | 0.18895    |   3.3 |  0.03
Modify  | 6.7844     | 6.8373     | 6.9028     |   1.6 |  1.13
Other   |            | 1.939      |            |       |  0.32

Nlocal:            360 ave         360 max         360 min
Histogram: 6 0 0 0 0 0 0 0 0 0
Nghost:        3514.67 ave        3520 max        3504 min
Histogram: 2 0 0 0 0 0 0 0 0 4
Neighs:              0 ave           0 max           0 min
Histogram: 6 0 0 0 0 0 0 0 0 0
FullNghs:        44640 ave       44640 max       44640 min
Histogram: 6 0 0 0 0 0 0 0 0 0

Total # of neighbors = 267840
Ave neighs/atom = 124
Neighbor list builds = 0
Dangerous builds = 0

write_restart checkpoint.init
System init for write_restart ...
write_data Al2O3_npt_equil.data
System init for write_data ...
Total wall time: 0:10:07
