LAMMPS (29 Sep 2021)
  using 1 OpenMP thread(s) per MPI task
Reading data file ...
  orthogonal box = (-0.42701795 -0.41068915 0.0000000) to (102.17503 101.65870 526.16902)
  3 by 2 by 16 MPI processor grid
  reading atoms ...
  444272 atoms
  reading velocities ...
  444272 velocities
  read_data CPU = 4.113 seconds
222111 atoms in group g_left
222161 atoms in group g_right

CITE-CITE-CITE-CITE-CITE-CITE-CITE-CITE-CITE-CITE-CITE-CITE-CITE

Your simulation uses code contributions which should be cited:
- @article{cjiang2012
The log file lists these citations in BibTeX format.

CITE-CITE-CITE-CITE-CITE-CITE-CITE-CITE-CITE-CITE-CITE-CITE-CITE

Neighbor list info ...
  update every 1 steps, delay 10 steps, check yes
  max neighbors/atom: 2000, page size: 100000
  master list distance cutoff = 8.28721
  ghost atom cutoff = 8.28721
  binsize = 4.143605, bins = 25 25 127
  3 neighbor lists, perpetual/occasional/extra = 3 0 0
  (1) pair eam/alloy, perpetual, skip from (3)
      attributes: half, newton on
      pair build: skip
      stencil: none
      bin: none
  (2) pair edip/multi, perpetual
      attributes: full, newton on
      pair build: full/bin/atomonly
      stencil: full/bin/3d
      bin: standard
  (3) neighbor class addition, perpetual, half/full from (2)
      attributes: half, newton on
      pair build: halffull/newton
      stencil: none
      bin: none
Setting up Verlet run ...
  Unit style    : metal
  Current step  : 0
  Time step     : 0.00025
Per MPI rank memory allocation (min/avg/max) = 8.338 | 12.63 | 14.58 Mbytes
Step Time Temp Press PotEng KinEng TotEng Volume 
       0            0    18073.812    197757.38   -2068809.1    1037916.4   -1030892.7    5510320.4 
     100        0.025    18072.575    198197.26   -2068786.1    1037845.3   -1030940.8    5494611.6 
     200         0.05    18072.483    198979.66   -2068792.1      1037840     -1030952    5478902.8 
     300        0.075    18073.223    199443.79   -2068819.3    1037882.6   -1030936.8      5463194 
     400          0.1    18072.644    199849.26   -2068793.4    1037849.3   -1030944.1    5447485.2 
     500        0.125    18072.632     200512.3   -2068783.1    1037848.6   -1030934.5    5431776.4 
     600         0.15    18072.735     201058.2     -2068792    1037854.5   -1030937.5    5416067.6 
     700        0.175     18073.16    201633.52   -2068804.1    1037878.9   -1030925.2    5400358.9 
     800          0.2    18073.181       202330   -2068802.7    1037880.1   -1030922.6    5384650.1 
     900        0.225    18073.254    202825.47   -2068787.9    1037884.4   -1030903.5    5368941.3 
    1000         0.25    18073.175    203772.67   -2068791.6    1037879.8   -1030911.8    5353232.5 
    1100        0.275    18073.623    204361.78     -2068809    1037905.5   -1030903.5    5337523.7 
    1200          0.3    18073.109    204708.48   -2068794.1      1037876   -1030918.1    5321814.9 
    1300        0.325    18072.935     205516.7     -2068791      1037866     -1030925    5306106.1 
    1400         0.35    18072.588    205916.99   -2068788.5    1037846.1   -1030942.4    5290397.3 
    1500        0.375    18073.313    206566.99   -2068829.9    1037887.7   -1030942.2    5274688.5 
    1600          0.4    18074.907    207235.05   -2068925.1    1037979.3   -1030945.8    5258979.7 
    1700        0.425    18082.836    207409.56   -2069378.1    1038434.6   -1030943.5    5243270.9 
    1800         0.45    18063.436    209704.48   -2068261.2    1037320.5   -1030940.7    5227562.1 
    1900        0.475    18018.541    212862.48   -2065677.5    1034742.4   -1030935.1    5211853.3 
    2000          0.5    17980.033    216696.37   -2063457.9      1032531   -1030926.9    5196144.5 
    2100        0.525    17933.847    219947.47   -2060821.1    1029878.7   -1030942.5    5180435.7 
    2200         0.55    17872.483    223752.25   -2057309.9    1026354.7   -1030955.2    5164726.9 
    2300        0.575    17839.659    227621.02   -2055442.6    1024469.8   -1030972.8    5149018.2 
    2400          0.6    17777.889    231380.21     -2051887    1020922.6   -1030964.4    5133309.4 
    2500        0.625    17682.515       237394   -2046416.7    1015445.6   -1030971.1    5117600.6 
    2600         0.65    17591.162    244247.06   -2041164.7    1010199.5   -1030965.2    5101891.8 
    2700        0.675    17460.716    250721.54   -2033660.9    1002708.4   -1030952.5      5086183 
    2800          0.7    17358.041    258649.12   -2027767.6    996812.12   -1030955.4    5070474.2 
    2900        0.725    17239.047    265776.44   -2020922.4    989978.73   -1030943.7    5054765.4 
    3000         0.75    17101.179    271731.14   -2012995.7    982061.43   -1030934.2    5039056.6 
    3100        0.775    16972.505    279667.47   -2005611.9    974672.16   -1030939.8    5023347.8 
    3200          0.8    16838.594    288587.89   -1997930.6     966982.1   -1030948.5      5007639 
    3300        0.825    16692.629     297901.1   -1989536.1    958599.85   -1030936.2    4991930.2 
    3400         0.85     16548.28    307714.43   -1981240.6    950310.36   -1030930.3    4976221.4 
    3500        0.875    16396.191    318415.28   -1972514.5    941576.42   -1030938.1    4960512.6 
    3600          0.9    16245.394    328972.69   -1963833.1    932916.65   -1030916.5    4944803.8 
    3700        0.925    16092.575    339839.33   -1955072.2    924140.81   -1030931.4      4929095 
    3800         0.95    15933.791    351747.34   -1945965.6    915022.38   -1030943.2    4913386.2 
    3900        0.975    15778.993    362890.53   -1937087.6    906132.86   -1030954.7    4897677.4 
    4000            1    15622.464    374500.55   -1928083.5    897143.96   -1030939.5    4881968.7 
    4100        1.025    15466.388    386503.34     -1919101    888181.04     -1030920    4866259.9 
    4200         1.05    15311.464    398280.02   -1910200.7     879284.3   -1030916.4    4850551.1 
    4300        1.075    15154.298    410063.09   -1901199.4    870258.78   -1030940.6    4834842.3 
    4400          1.1    14998.371    421696.93   -1892246.6    861304.45   -1030942.1    4819133.5 
    4500        1.125    14845.156    433801.59   -1883425.1    852505.85   -1030919.2    4803424.7 
    4600         1.15    14691.143     445323.8   -1874565.1    843661.42   -1030903.7    4787715.9 
    4700        1.175    14536.579    456807.29   -1865672.5    834785.32   -1030887.2    4772007.1 
    4800          1.2    14382.929    468564.28   -1856860.7    825961.76     -1030899    4756298.3 
    4900        1.225    14228.021    480226.94   -1847951.3    817065.92   -1030885.4    4740589.5 
    5000         1.25    14077.946    491620.05   -1839329.1    808447.62   -1030881.5    4724880.7 
    5100        1.275    13925.114    503067.86   -1830546.7    799671.02   -1030875.7    4709171.9 
    5200          1.3    13772.347    514673.51   -1821767.7    790898.18   -1030869.5    4693463.1 
    5300        1.325    13620.337    526147.14   -1813042.5    782168.74   -1030873.7    4677754.3 
    5400         1.35    13465.707    536922.05   -1804174.9    773288.89     -1030886    4662045.5 
    5500        1.375    13310.946    548676.31   -1795273.2    764401.49   -1030871.8    4646336.7 
    5600          1.4    13154.933    560437.24   -1786317.4    755442.22   -1030875.2      4630628 
    5700        1.425    13166.113    565428.75     -1786965    756084.23   -1030880.7    4614919.2 
    5800         1.45    13181.977    562491.82   -1787889.3    756995.26   -1030894.1    4599210.4 
    5900        1.475    13109.519    559368.39     -1783754    752834.26   -1030919.7    4583501.6 
    6000          1.5    13116.729    558876.53   -1784171.7    753248.31   -1030923.4    4567792.8 
    6100        1.525    13132.319    561496.42   -1785064.9    754143.54   -1030921.4      4552084 
    6200         1.55    13092.625    563656.58   -1782769.7    751864.07   -1030905.6    4536375.2 
    6300        1.575    13120.567    562962.26   -1784342.6    753468.69   -1030873.9    4520666.4 
    6400          1.6    13104.895       562248   -1783441.2     752568.7   -1030872.5    4504957.6 
    6500        1.625    13110.521    562163.89   -1783745.5    752891.77   -1030853.8    4489248.8 
    6600         1.65    13116.887    562723.26   -1784089.3    753257.38   -1030831.9      4473540 
    6700        1.675    13113.259    563388.42   -1783848.2    753049.01   -1030799.2    4457831.2 
    6800          1.7    13049.772    568125.63     -1780206    749403.19   -1030802.8    4442122.4 
    6900        1.725    12978.798     573957.4   -1776146.9    745327.36   -1030819.5    4426413.6 
    7000         1.75    12817.006    575611.68   -1766865.6    736036.25   -1030829.4    4410704.8 
    7100        1.775    12746.092    584983.44   -1762760.2    731963.86   -1030796.3      4394996 
    7200          1.8    12600.493    594511.94   -1754397.9    723602.62   -1030795.3    4379287.3 
    7300        1.825     12478.92     599103.4     -1747425    716621.15   -1030803.8    4363578.5 
    7400         1.85    12336.967    609145.52   -1739288.9    708469.24   -1030819.7    4347869.7 
    7500        1.875    12201.089    622365.12   -1731488.6    700666.24   -1030822.4    4332160.9 
    7600          1.9    12050.869    634065.49     -1722845    692039.61   -1030805.4    4316452.1 
    7700        1.925    11897.572    647115.45   -1714042.6    683236.29   -1030806.3    4300743.3 
    7800         1.95    11733.886     662336.8   -1704654.1    673836.38   -1030817.7    4285034.5 
    7900        1.975    11571.285    677957.84   -1695333.1    664498.77   -1030834.4    4269325.7 
    8000            2    11386.574    694955.44   -1684728.6    653891.45   -1030837.1    4253616.9 
    8100        2.025    11197.644    713080.18   -1673870.5    643041.87   -1030828.7    4237908.1 
    8200         2.05     11000.65    731508.74   -1662542.4     631729.2   -1030813.2    4222199.3 
    8300        2.075    10799.263    749703.55   -1650973.4    620164.23   -1030809.2    4206490.5 
    8400          2.1    10592.021    768811.56     -1639057    608263.07   -1030793.9    4190781.7 
    8500        2.125    10378.331     787902.6   -1626794.7    595991.56   -1030803.1    4175072.9 
    8600         2.15    10161.001    806880.29   -1614335.4    583511.05   -1030824.3    4159364.1 
    8700        2.175    9940.6841    825240.79   -1601707.3    570859.03   -1030848.2    4143655.3 
    8800          2.2    9736.8222    843170.83   -1590002.2    559151.95   -1030850.2    4127946.5 
    8900        2.225    9528.9718    859895.51   -1578072.2    547215.82   -1030856.4    4112237.8 
    9000         2.25     9351.242    876094.46   -1567883.7    537009.41   -1030874.3      4096529 
    9100        2.275    9184.2151    892286.39   -1558270.7    527417.64   -1030853.1    4080820.2 
    9200          2.3    9040.9911    907446.26   -1550025.7    519192.78   -1030832.9    4065111.4 
    9300        2.325    8907.2239    921174.91   -1542340.3       511511   -1030829.4    4049402.6 
    9400         2.35     8790.155    934751.26   -1535635.6    504788.13   -1030847.4    4033693.8 
    9500        2.375    8671.0668    946955.61   -1528808.1    497949.31   -1030858.8      4017985 
    9600          2.4    8576.9223     956894.1   -1523410.3    492542.92   -1030867.3    4002276.2 
    9700        2.425    8475.3601    968748.99   -1517580.2    486710.55   -1030869.7    3986567.4 
    9800         2.45    8394.4054    984015.75   -1512935.5    482061.61   -1030873.9    3970858.6 
    9900        2.475    8351.4746    997083.52   -1510467.5    479596.24   -1030871.3    3955149.8 
   10000          2.5    8295.6121    1006479.9   -1507258.7    476388.25   -1030870.4      3939441 
   10100        2.525    8242.7532    1014282.2   -1504237.7    473352.75     -1030885    3923732.2 
   10200         2.55     8182.126    1019877.2   -1500768.8    469871.14   -1030897.7    3908023.4 
   10300        2.575    8136.6355    1037142.7   -1498149.8    467258.78   -1030891.1    3892314.6 
   10400          2.6     8096.499      1044387   -1495832.7    464953.88   -1030878.8    3876605.8 
   10500        2.625    8030.8273    1051272.1   -1492048.7    461182.58   -1030866.1    3860897.1 
   10600         2.65    7967.5533    1061651.6   -1488425.2    457548.97   -1030876.2    3845188.3 
   10700        2.675    7890.8383    1075999.1   -1484034.3    453143.49   -1030890.8    3829479.5 
   10800          2.7    7802.2481    1089732.3   -1478951.6    448056.07   -1030895.5    3813770.7 
   10900        2.725    7712.5973    1105168.1   -1473830.3    442907.73   -1030922.5    3798061.9 
   11000         2.75    7613.5759    1123811.4   -1468176.8    437221.28   -1030955.5    3782353.1 
   11100        2.775    7500.4894      1143751   -1461694.3    430727.11   -1030967.2    3766644.3 
   11200          2.8    7382.5307    1160086.1   -1454915.3    423953.15   -1030962.1    3750935.5 
   11300        2.825    7253.1542      1178699   -1447467.6     416523.5   -1030944.1    3735226.7 
   11400         2.85    7096.1743    1197865.2   -1438433.9    407508.69   -1030925.2    3719517.9 
   11500        2.875     6943.258    1218657.1   -1429659.7    398727.24   -1030932.5    3703809.1 
   11600          2.9    6766.8666    1239992.1   -1419508.2    388597.69   -1030910.6    3688100.3 
   11700        2.925    6582.6754      1262159   -1408945.4    378020.23   -1030925.2    3672391.5 
   11800         2.95    6390.7428    1283680.4   -1397940.2    366998.21     -1030942    3656682.7 
   11900        2.975     6189.482    1307244.7   -1386399.9     355440.5   -1030959.4    3640973.9 
   12000            3    6001.3421      1327420   -1375596.1    344636.28   -1030959.9    3625265.1 
   12100        3.025    5795.8376    1351323.3   -1363770.9    332834.87     -1030936    3609556.3 
   12200         3.05    5599.1965    1373595.3   -1352486.3    321542.45   -1030943.9    3593847.6 
   12300        3.075    5404.1435    1394459.6   -1341292.7    310341.23   -1030951.5    3578138.8 
   12400          3.1     5217.797    1414765.2   -1330619.5       299640   -1030979.5      3562430 
   12500        3.125     5042.612      1434314   -1320558.6    289579.73   -1030978.8    3546721.2 
   12600         3.15    4889.9451    1451079.3   -1311782.4     280812.6   -1030969.8    3531012.4 
   12700        3.175    4739.7157    1468893.1   -1303136.1    272185.45   -1030950.7    3515303.6 
   12800          3.2    4612.5059    1483181.4   -1295839.1    264880.23   -1030958.8    3499594.8 
   12900        3.225    4492.4503    1496695.1   -1288938.2    257985.85   -1030952.3      3483886 
   13000         3.25    4392.5337    1509064.8   -1283223.9    252247.98   -1030975.9    3468177.2 
   13100        3.275    4288.9643    1519922.3   -1277309.2    246300.35   -1031008.8    3452468.4 
   13200          3.3    4201.8644    1531664.3     -1272312    241298.51   -1031013.5    3436759.6 
   13300        3.325    4102.3812    1544192.4   -1266598.4    235585.53   -1031012.9    3421050.8 
   13400         3.35    4048.4124    1555092.4   -1263498.2    232486.29     -1031012      3405342 
   13500        3.375    4149.8863    1555029.7   -1269325.9    238313.59   -1031012.3    3389633.2 
   13600          3.4    4111.2909    1550260.1     -1267108    236097.19   -1031010.8    3373924.4 
   13700        3.425    4088.6387    1549557.1   -1265783.2    234796.35   -1030986.8    3358215.6 
   13800         3.45    4148.5559    1550830.5     -1269075    238237.18   -1030837.8    3342506.9 
   13900        3.475    4169.6681    1558833.3   -1269626.8    239449.59   -1030177.2    3326798.1 
   14000          3.5    4226.9667      1581305   -1247769.8    242740.05   -1005029.7    3311089.3 
   14100        3.525    4860.3222    1598979.7   -1245524.7    279111.46   -966413.21    3295380.5 
   14200         3.55    4588.0294    1628765.9   -1214464.3    263474.62   -950989.66    3279671.7 
   14300        3.575    4734.5846    1673243.5   -1195960.7    271890.78   -924069.94    3263962.9 
   14400          3.6    5010.9977    1717578.9   -1157144.7    287764.23   -869380.43    3248254.1 
   14500        3.625    5295.4235    1780094.5   -1124793.2    304097.82   -820695.38    3232545.3 
   14600         3.65    5507.5414    1834077.7   -1089713.3    316279.01   -773434.28    3216836.5 
   14700        3.675    5951.3367    1891033.4   -1053447.7    341764.64   -711683.07    3201127.7 
   14800          3.7    6423.7218    1951264.6   -1022171.3    368892.08   -653279.18    3185418.9 
   14900        3.725    6818.7877    2005212.8   -991363.87    391579.34   -599784.52    3169710.1 
   15000         3.75    7305.1474    2058815.6   -961425.07     419509.3   -541915.77    3154001.3 
   15100        3.775    7780.6613    2112718.1    -933761.3    446816.41   -486944.89    3138292.5 
   15200          3.8    8206.9997    2164150.6   -906387.72    471299.54   -435088.17    3122583.7 
   15300        3.825    8646.2543    2215326.7   -879955.58    496524.42   -383431.16    3106874.9 
   15400         3.85    9086.2866    2265874.2    -854982.2    521793.95   -333188.25    3091166.2 
   15500        3.875    9500.0401    2315283.4   -830814.94    545554.37   -285260.57    3075457.4 
   15600          3.9    9930.4817    2362756.1   -807455.54    570273.15   -237182.39    3059748.6 
   15700        3.925    10386.096    2409899.5   -787547.18    596437.47   -191109.71    3044039.8 
   15800         3.95    10855.043    2454369.7    -769006.6    623367.49   -145639.11      3028331 
   15900        3.975    11332.936    2502513.6   -751662.88    650811.25   -100851.63    3012622.2 
   16000            4    11715.549    2561213.9   -730662.63    672783.35   -57879.273    2996913.4 
   16100        4.025    12096.492    2654215.3   -709766.52    694659.62   -15106.898    2981204.6 
   16200         4.05     12545.98    2751831.3    -693436.2    720472.14    27035.939    2965495.8 
   16300        4.075    12847.624    2853078.9   -669841.05     737794.5    67953.446      2949787 
   16400          4.1    13100.069    2931033.4   -643366.28    752291.58     108925.3    2934078.2 
   16500        4.125    13274.745    2988890.3   -613933.39    762322.59     148389.2    2918369.4 
   16600         4.15    13414.448    3061408.2   -582339.18    770345.26    188006.08    2902660.6 
   16700        4.175    13453.486    3142309.2   -545701.52    772587.08    226885.56    2886951.8 
   16800          4.2     13456.69    3220209.6   -508486.08    772771.07    264284.99      2871243 
   16900        4.225    13450.299    3295540.6   -470663.52    772404.07    301740.55    2855534.2 
   17000         4.25    13450.064    3370516.8   -434226.54    772390.56    338164.02    2839825.4 
   17100        4.275    13456.929      3446675   -396646.98     772784.8    376137.82    2824116.7 
   17200          4.3    13486.524    3515961.3   -360321.88    774484.33    414162.44    2808407.9 
   17300        4.325    13557.681    3591476.2   -324681.95     778570.6    453888.65    2792699.1 
   17400         4.35    13656.591    3662772.5   -289539.99     784250.7    494710.71    2776990.3 
   17500        4.375    13783.949    3741063.8   -256736.18    791564.43    534828.26    2761281.5 
   17600          4.4    13904.487      3816696   -223521.89    798486.49     574964.6    2745572.7 
   17700        4.425      14096.1    3888280.6   -193688.29    809490.18    615801.89    2729863.9 
   17800         4.45    14393.346    3952802.7   -168508.24    826559.98    658051.74    2714155.1 
   17900        4.475    14823.276    4009633.8   -146581.57    851249.34    704667.77    2698446.3 
   18000          4.5    15339.025    4062017.5   -125747.57    880867.04    755119.47    2682737.5 
   18100        4.525    15932.361    4130051.4   -104334.72    914940.27    810605.55    2667028.7 
   18200         4.55    16561.949      4202903   -82479.196     951095.3     868616.1    2651319.9 
   18300        4.575    17231.319    4284890.8   -57925.929    989534.94    931609.01    2635611.1 
   18400          4.6    17852.913    4370849.4   -28041.331    1025230.9    997189.57    2619902.3 
   18500        4.625    18463.582    4468641.1    5684.1498    1060299.5    1065983.7    2604193.5 
   18600         4.65    19069.917    4561747.9    40086.005    1095119.3    1135205.3    2588484.7 
   18700        4.675    19615.418    4660906.5    78350.834    1126445.5    1204796.3      2572776 
   18800          4.7    20219.813    4753392.1    114483.55    1161153.8    1275637.4    2557067.2 
   18900        4.725    20820.133    4845490.3    151090.29      1195628    1346718.3    2541358.4 
   19000         4.75    21410.015    4943987.4    186867.55    1229502.9    1416370.5    2525649.6 
   19100        4.775    22034.261    5039102.8     221309.7    1265351.2    1486660.9    2509940.8 
   19200          4.8    22690.864    5142668.5    253512.96    1303057.7    1556570.6      2494232 
   19300        4.825    23361.207    5248857.8    284501.19    1341553.2    1626054.4    2478523.2 
   19400         4.85    24034.901    5355962.1    314507.78      1380241    1694748.8    2462814.4 
   19500        4.875     24702.24    5470804.1    344142.99      1418564      1762707    2447105.6 
   19600          4.9     25373.61    5578110.7    371281.49    1457118.5      1828400    2431396.8 
   19700        4.925     25998.57    5683833.1    400055.22    1493007.8      1893063      2415688 
   19800         4.95    26461.533    5801766.8     436261.3    1519594.1    1955855.4    2399979.2 
   19900        4.975    26586.688    5939809.4    489160.78    1526781.4    2015942.1    2384270.4 
   20000            5    26578.564      6094904    547544.34    1526314.8    2073859.2    2368561.6 
   20100        5.025    26445.033    6255215.7    609921.86    1518646.6    2128568.4    2352852.8 
   20200         5.05    26222.987    6418272.6    674313.96    1505895.2    2180209.2      2337144 
   20300        5.075    25876.159    6584501.7    742638.57    1485978.1    2228616.7    2321435.3 
   20400          5.1    25503.093    6750673.5    809464.55    1464554.2    2274018.8    2305726.5 
   20500        5.125    25009.877    6921267.2    880722.76    1436230.5    2316953.3    2290017.7 
   20600         5.15    24488.555    7091122.6    951206.43    1406292.8    2357499.2    2274308.9 
   20700        5.175    23853.675    7268940.2      1026120    1369833.9    2395953.9    2258600.1 
   20800          5.2    23123.977    7438464.7    1104908.6    1327929.9    2432838.5    2242891.3 
   20900        5.225    22328.161    7611602.4    1186711.1    1282228.9      2468940    2227182.5 
   21000         5.25    21529.095    7772281.3    1268082.2    1236341.3    2504423.5    2211473.7 
   21100        5.275    20629.859    7956970.7    1355387.7    1184701.3      2540089    2195764.9 
   21200          5.3    19715.732    8152729.7    1445015.7    1132206.2    2577221.8    2180056.1 
   21300        5.325    18802.488    8340332.6    1536719.9    1079761.7    2616481.7    2164347.3 
   21400         5.35    17953.784      8532379    1627984.3    1031023.6    2659007.9    2148638.5 
   21500        5.375     17183.92    8733175.7    1718290.7    986812.98    2705103.7    2132929.7 
   21600          5.4    16459.323    8935789.6    1808823.8    945201.87    2754025.6    2117220.9 
   21700        5.425    15932.228    9152572.3      1892346    914932.63    2807278.6    2101512.1 
   21800         5.45    15562.173    9399661.1    1969256.2    893681.65    2862937.9    2085803.3 
   21900        5.475    15330.412    9675745.3    2039250.5    880372.42    2919622.9    2070094.5 
   22000          5.5    15254.955    9951868.4      2102786    876039.17    2978825.1    2054385.8 
   22100        5.525    15139.862     10161307    2168985.8    869429.83    3038415.6      2038677 
   22200         5.55    15063.662     10356946    2235091.1    865053.92      3100145    2022968.2 
   22300        5.575    14906.523     10593252    2306737.5    856029.92    3162767.4    2007259.4 
   22400          5.6    14650.708     10843533    2384424.2    841339.39    3225763.6    1991550.6 
   22500        5.625    14410.138     11103555    2462608.2     827524.3    3290132.5    1975841.8 
   22600         5.65    14110.364     11366526    2544810.5    810309.27    3355119.8      1960133 
   22700        5.675     13831.14     11646051    2627933.3    794274.42    3422207.8    1944424.2 
   22800          5.7    13666.973     11925417    2708620.3    784846.88    3493467.2    1928715.4 
   22900        5.725    13715.687     12207289    2797667.6    787644.36    3585311.9    1913006.6 
   23000         5.75    14141.882     12555712    2914429.7    812119.29      3726549    1897297.8 
   23100        5.775    14992.135     12931147    3044276.2    860946.35    3905222.5      1881589 
   23200          5.8    15661.164     13336681    3186703.6    899366.36    4086069.9    1865880.2 
   23300        5.825    16318.855     13739473    3335886.6     937135.3    4273021.9    1850171.4 
   23400         5.85    16978.488     14177739    3494700.2    975015.69    4469715.9    1834462.6 
