LAMMPS (29 Sep 2021)
  using 1 OpenMP thread(s) per MPI task
Reading data file ...
  orthogonal box = (-0.20845477 -0.21031445 0.0000000) to (101.53226 101.53412 619.83200)
  1 by 2 by 12 MPI processor grid
  reading atoms ...
  442392 atoms
  reading velocities ...
  442392 velocities
  read_data CPU = 4.389 seconds
221196 atoms in group g_left
221196 atoms in group g_right

CITE-CITE-CITE-CITE-CITE-CITE-CITE-CITE-CITE-CITE-CITE-CITE-CITE

Your simulation uses code contributions which should be cited:
- GPU package (short-range, long-range and three-body potentials):
The log file lists these citations in BibTeX format.

CITE-CITE-CITE-CITE-CITE-CITE-CITE-CITE-CITE-CITE-CITE-CITE-CITE


--------------------------------------------------------------------------
- Using acceleration for eam/alloy:
-  with 12 proc(s) per device.
-  Horizontal vector operations: ENABLED
-  Shared memory system: No
--------------------------------------------------------------------------
Device 0: Tesla V100-SXM2-32GB, 80 CUs, 28/32 GB, 1.5 GHZ (Mixed Precision)
Device 1: Tesla V100-SXM2-32GB, 80 CUs, 1.5 GHZ (Mixed Precision)
--------------------------------------------------------------------------

Initializing Device and compiling on process 0...Done.
Initializing Devices 0-1 on core 0...Done.
Initializing Devices 0-1 on core 1...Done.
Initializing Devices 0-1 on core 2...Done.
Initializing Devices 0-1 on core 3...Done.
Initializing Devices 0-1 on core 4...Done.
Initializing Devices 0-1 on core 5...Done.
Initializing Devices 0-1 on core 6...Done.
Initializing Devices 0-1 on core 7...Done.
Initializing Devices 0-1 on core 8...Done.
Initializing Devices 0-1 on core 9...Done.
Initializing Devices 0-1 on core 10...Done.
Initializing Devices 0-1 on core 11...Done.

Setting up Verlet run ...
  Unit style    : metal
  Current step  : 0
  Time step     : 0.00025
Per MPI rank memory allocation (min/avg/max) = 8.377 | 10.98 | 11.78 Mbytes
Step Time Temp Press PotEng KinEng TotEng Volume 
       0            0    15774.374    147343.84   -1713191.5    902034.28   -811157.23    6416222.9 
     100        0.025    15773.031    147660.48   -1713204.3    901957.52   -811246.74    6400695.6 
     200         0.05    15773.804    148025.02   -1713196.3     902001.7   -811194.59    6385168.2 
     300        0.075    15774.912    148383.77   -1713193.8    902065.06   -811128.74    6369640.9 
     400          0.1    15774.013    148753.05   -1713163.9    902013.64   -811150.24    6354113.6 
     500        0.125    15774.165    149101.32   -1713198.4    902022.35   -811176.04    6338586.2 
     600         0.15    15774.372    149471.09   -1713195.6    902034.17   -811161.43    6323058.9 
     700        0.175      15774.4    149844.49   -1713191.7    902035.77   -811155.95    6307531.6 
     800          0.2    15774.587    150215.13   -1713223.2    902046.51   -811176.65    6292004.3 
     900        0.225    15773.868    150589.18   -1713187.9    902005.37   -811182.58    6276476.9 
    1000         0.25    15773.602    150955.58   -1713178.9    901990.14   -811188.79    6260949.6 
    1100        0.275     15773.41    151308.91   -1713193.9    901979.18   -811214.73    6245422.3 
    1200          0.3    15773.588     151677.8   -1713209.4    901989.37   -811220.07      6229895 
    1300        0.325    15773.801    152062.67   -1713193.1    902001.53   -811191.56    6214367.6 
    1400         0.35    15773.504    152444.37   -1713186.7    901984.59   -811202.07    6198840.3 
    1500        0.375    15775.808    152733.28     -1713339    902116.28   -811222.73      6183313 
    1600          0.4    15792.338    153002.36   -1714255.7    903061.56   -811194.09    6167785.6 
    1700        0.425    15763.264     156417.2   -1712557.4    901399.01   -811158.38    6152258.3 
    1800         0.45    15700.624    158597.27     -1708992       897817   -811174.96      6136731 
    1900        0.475     15612.03    162402.03   -1703958.7    892750.93   -811207.73    6121203.7 
    2000          0.5    15536.662    166176.87   -1699643.7    888441.11   -811202.57    6105676.3 
    2100        0.525    15460.096    170384.55     -1695263     884062.8   -811200.23      6090149 
    2200         0.55    15374.512     174325.9   -1690397.2    879168.82   -811228.37    6074621.7 
    2300        0.575     15296.28    178594.08   -1685934.1    874695.22   -811238.87    6059094.4 
    2400          0.6    15215.356    182954.02   -1681280.9    870067.68   -811213.27      6043567 
    2500        0.625    15135.744    187102.97   -1676711.2     865515.2   -811195.97    6028039.7 
    2600         0.65    15058.353    191427.39   -1672296.4     861089.7   -811206.75    6012512.4 
    2700        0.675    14982.443    195992.99   -1667975.3    856748.92   -811226.37      5996985 
    2800          0.7    14898.812    200211.33   -1663190.1    851966.57   -811223.52    5981457.7 
    2900        0.725    14822.576    204522.65   -1658813.9    847607.12   -811206.76    5965930.4 
    3000         0.75        14744    208824.97   -1654320.2    843113.88   -811206.34    5950403.1 
    3100        0.775    14666.498    213095.59   -1649896.9    838682.06   -811214.83    5934875.7 
    3200          0.8    14588.809    217476.11   -1645447.5    834239.54   -811207.92    5919348.4 
    3300        0.825    14505.031    221794.19   -1640634.1     829448.8   -811185.31    5903821.1 
    3400         0.85    14429.971    226039.56   -1636339.2     825156.6   -811182.59    5888293.8 
    3500        0.875    14347.725    230341.46   -1631650.3    820453.47   -811196.81    5872766.4 
    3600          0.9    14269.541     234656.4   -1627174.7    815982.65   -811192.08    5857239.1 
    3700        0.925    14191.226    239067.59   -1622667.4     811504.3   -811163.06    5841711.8 
    3800         0.95    14107.297    243298.01   -1617855.1    806704.95   -811150.14    5826184.4 
    3900        0.975     14031.91    247638.19   -1613519.3    802394.08   -811125.21    5810657.1 
    4000            1    13955.454     252138.4   -1609102.1    798022.03   -811080.11    5795129.8 
    4100        1.025    13885.583    255939.25   -1605098.2     794026.6   -811071.61    5779602.5 
    4200         1.05    13818.665    260220.61   -1601319.7    790199.99   -811119.74    5764075.1 
    4300        1.075    13722.729    264793.15   -1595867.4    784713.99   -811153.41    5748547.8 
    4400          1.1    13578.005     267916.9   -1587572.9    776438.17   -811134.75    5733020.5 
    4500        1.125    13496.072    273571.26   -1582875.3    771752.97   -811122.36    5717493.2 
    4600         1.15    13367.607    280208.37     -1575532    764406.91   -811125.05    5701965.8 
    4700        1.175    13245.773    284958.62   -1568549.3    757439.98   -811109.31    5686438.5 
    4800          1.2     13140.32    289826.87   -1562488.5    751409.83   -811078.64    5670911.2 
    4900        1.225     12995.55    296014.29   -1554199.7    743131.36   -811068.32    5655383.8 
    5000         1.25    12896.624    301404.72   -1548550.2    737474.42   -811075.83    5639856.5 
    5100        1.275    12774.568    307301.83   -1541565.2    730494.85   -811070.31    5624329.2 
    5200          1.3    12649.704    313225.65   -1534427.8    723354.64   -811073.12    5608801.9 
    5300        1.325    12545.509    318645.32   -1528485.2    717396.42   -811088.83    5593274.5 
    5400         1.35    12410.463    324545.56   -1520760.3       709674   -811086.28    5577747.2 
    5500        1.375     12305.63    330792.76   -1514740.9    703679.31   -811061.63    5562219.9 
    5600          1.4    12182.369    337608.78   -1507688.2    696630.81   -811057.38    5546692.6 
    5700        1.425    12066.284    344912.61   -1501047.1    689992.67    -811054.4    5531165.2 
    5800         1.45     11963.37    351861.89   -1495126.5    684107.68   -811018.81    5515637.9 
    5900        1.475    11856.033    358507.88   -1488967.9    677969.78   -810998.16    5500110.6 
    6000          1.5    11772.707    365206.63     -1484220    673204.89   -811015.14    5484583.2 
    6100        1.525    11684.756    372006.72     -1479186    668175.51    -811010.5    5469055.9 
    6200         1.55    11601.667    379035.85   -1474412.4    663424.24   -810988.14    5453528.6 
    6300        1.575    11558.339    384219.05   -1471943.8    660946.58   -810997.22    5438001.3 
    6400          1.6     11550.57    386757.67   -1471490.7    660502.29   -810988.44    5422473.9 
    6500        1.625    11474.547     390032.3   -1467098.5    656155.04   -810943.47    5406946.6 
    6600         1.65    11439.891    394014.41   -1465111.9     654173.3   -810938.58    5391419.3 
    6700        1.675    11418.258    399129.33   -1463920.7    652936.25   -810984.47      5375892 
    6800          1.7    11357.792    404100.37   -1460470.6    649478.61   -810991.98    5360364.6 
    6900        1.725    11340.951    408138.13     -1459446    648515.58   -810930.43    5344837.3 
    7000         1.75    11308.726    411657.43   -1457564.9    646672.82   -810892.06      5329310 
    7100        1.775    11238.456    416556.31   -1453553.7    642654.52    -810899.2    5313782.6 
    7200          1.8    11201.559    421352.77   -1451457.9    640544.65   -810913.29    5298255.3 
    7300        1.825    11147.058     426345.8   -1448340.7    637428.09   -810912.64      5282728 
    7400         1.85    11111.071    430215.85   -1446278.5    635370.22   -810908.27    5267200.7 
    7500        1.875    11065.455       432800   -1443665.8    632761.72    -810904.1    5251673.3 
    7600          1.9    10997.351     435904.6   -1439777.3    628867.31   -810910.01      5236146 
    7700        1.925     10946.74    440111.74   -1436890.4    625973.15   -810917.25    5220618.7 
    7800         1.95    10889.779    444579.38     -1433622    622715.94   -810906.03    5205091.4 
    7900        1.975     10834.99    449501.79     -1430477    619582.93   -810894.03      5189564 
    8000            2    10760.987    453825.94   -1426256.2    615351.17   -810904.99    5174036.7 
    8100        2.025    10677.002    457011.73   -1421478.5    610548.58   -810929.88    5158509.4 
    8200         2.05     10595.19    460519.44   -1416819.4    605870.28   -810949.13      5142982 
    8300        2.075    10525.623    464319.07   -1412847.9    601892.22   -810955.64    5127454.7 
    8400          2.1    10443.256    467962.92   -1408143.8    597182.17   -810961.63    5111927.4 
    8500        2.125    10366.163    472246.29   -1403749.4    592773.76   -810975.59    5096400.1 
    8600         2.15    10282.895    476958.32     -1399004    588012.18   -810991.84    5080872.7 
    8700        2.175    10199.036    482147.28   -1394223.2    583216.83    -811006.4    5065345.4 
    8800          2.2    10098.343    488581.92   -1388472.1    577458.84    -811013.3    5049818.1 
    8900        2.225    9977.4397    496986.06     -1381567    570545.17   -811021.83    5034290.8 
    9000         2.25    9833.9463    505054.84   -1373371.8    562339.71   -811032.11    5018763.4 
    9100        2.275    9694.8183    514382.74   -1365426.4    554383.88   -811042.51    5003236.1 
    9200          2.3      9535.38    524710.68   -1356318.3    545266.64   -811051.64    4987708.8 
    9300        2.325    9383.0824    534359.42   -1347612.5    536557.72   -811054.78    4972181.4 
    9400         2.35    9221.8135    544867.52   -1338403.1     527335.8   -811067.33    4956654.1 
    9500        2.375    9057.2651    556490.98   -1329007.1    517926.35    -811080.8    4941126.8 
    9600          2.4    8895.7016    566827.78   -1319783.5    508687.57   -811095.97    4925599.5 
    9700        2.425    8756.6192    576205.06   -1311841.1    500734.35    -811106.7    4910072.1 
    9800         2.45    8613.6831    585005.78     -1303668    492560.76   -811107.21    4894544.8 
    9900        2.475     8469.867    593821.45   -1295445.4    484336.85   -811108.57    4879017.5 
   10000          2.5     8341.935    602437.62   -1288143.8    477021.25   -811122.54    4863490.2 
   10100        2.525    8219.7956     610770.6   -1281182.4    470036.89   -811145.53    4847962.8 
   10200         2.55    8111.0729    618373.03   -1274978.3    463819.74   -811158.58    4832435.5 
   10300        2.575    7994.7768    625588.94   -1268305.9    457169.52   -811136.43    4816908.2 
   10400          2.6    7893.6984    632984.18   -1262486.9     451389.5   -811097.39    4801380.8 
   10500        2.625     7803.395    640478.05     -1257305    446225.63   -811079.34    4785853.5 
   10600         2.65    7703.1066    647922.51   -1251581.5    440490.78    -811090.7    4770326.2 
   10700        2.675     7619.727    655145.22   -1246845.2    435722.85   -811122.36    4754798.9 
   10800          2.7    7522.1231     662350.5   -1241281.6    430141.51   -811140.07    4739271.5 
   10900        2.725    7449.8128    670313.99   -1237139.4    426006.56   -811132.81    4723744.2 
   11000         2.75    7358.6511    678288.65   -1231901.2    420793.61   -811107.58    4708216.9 
   11100        2.775    7319.4273    685032.24   -1229643.9    418550.65   -811093.28    4692689.6 
   11200          2.8    7300.1291    689111.39     -1228560    417447.11   -811112.87    4677162.2 
   11300        2.825     7254.281    693523.77   -1225958.2    414825.36   -811132.89    4661634.9 
   11400         2.85    7218.6065    698925.77   -1223912.8    412785.36   -811127.48    4646107.6 
   11500        2.875    7206.0583    705184.78   -1223184.4    412067.81   -811116.57    4630580.2 
   11600          2.9    7157.3377    711711.23   -1220400.1     409281.8   -811118.35    4615052.9 
   11700        2.925    7148.8709    716989.37   -1219908.8    408797.64   -811111.18    4599525.6 
   11800         2.95    7126.2186    721757.77   -1218588.7     407502.3   -811086.44    4583998.3 
   11900        2.975    7087.1187    726300.13   -1216335.1    405266.43   -811068.72    4568470.9 
   12000            3    7101.5496    730270.44   -1217144.2    406091.64   -811052.56    4552943.6 
   12100        3.025    7069.4203    734968.37   -1215287.8    404254.37   -811033.39    4537416.3 
   12200         3.05    7084.6124    738482.85   -1216155.7    405123.11   -811032.61      4521889 
   12300        3.075    7078.2199     741066.3     -1215804    404757.56    -811046.4    4506361.6 
   12400          3.1    7071.3727    743596.13   -1215419.8    404366.02   -811053.81    4490834.3 
   12500        3.125    7058.7551    747317.85   -1214709.6     403644.5   -811065.08      4475307 
   12600         3.15    7002.2727    753667.71   -1211503.2    400414.64    -811088.6    4459779.6 
   12700        3.175    6938.7903     757725.6   -1207880.2    396784.48   -811095.67    4444252.3 
   12800          3.2    6877.3239    763570.18   -1204339.2    393269.62   -811069.63      4428725 
   12900        3.225    6802.3006    770842.29   -1200039.3    388979.53   -811059.77    4413197.7 
   13000         3.25    6710.4698    777173.54   -1194813.7    383728.32   -811085.37    4397670.3 
   13100        3.275    6609.8976    785171.15   -1189069.4    377977.24   -811092.19      4382143 
   13200          3.3    6507.0793    794299.06   -1183174.4    372097.73    -811076.7    4366615.7 
   13300        3.325    6392.8089    803262.06   -1176655.9    365563.35   -811092.54    4351088.4 
   13400         3.35    6266.9221    812847.59     -1169469    358364.69   -811104.33      4335561 
   13500        3.375    6137.2971    822771.71   -1162024.3    350952.28   -811072.05    4320033.7 
   13600          3.4    6012.6662     832347.1   -1154866.8    343825.45   -811041.34    4304506.4 
   13700        3.425    5873.8597    841971.83   -1146941.5       335888   -811053.45      4288979 
   13800         3.45    5721.9843    852900.68   -1138257.4    327203.23   -811054.19    4273451.7 
   13900        3.475    5571.0394    866115.89   -1129603.3    318571.67   -811031.64    4257924.4 
   14000          3.5    5402.4856     878440.8   -1119971.1    308933.17   -811037.96    4242397.1 
   14100        3.525    5252.5066    891622.59   -1111413.5    300356.84   -811056.66    4226869.7 
   14200         3.55    5085.5594    905081.79   -1101871.2    290810.21   -811061.03    4211342.4 
   14300        3.575    4925.6608    917961.02   -1092732.2    281666.65   -811065.55    4195815.1 
   14400          3.6    4759.1625    931618.05   -1083227.8    272145.68    -811082.1    4180287.8 
   14500        3.625    4600.1007    945710.83   -1074116.5    263049.97   -811066.53    4164760.4 
   14600         3.65    4441.9429    959061.64   -1065029.1    254005.95   -811023.13    4149233.1 
   14700        3.675     4329.534    969816.25   -1058588.3    247578.01   -811010.24    4133705.8 
   14800          3.7    4226.6325    978590.04   -1052710.9    241693.75   -811017.19    4118178.4 
   14900        3.725    4095.5217    987616.68   -1045206.2    234196.37   -811009.87    4102651.1 
   15000         3.75    3987.4905    997184.66   -1039035.6    228018.76   -811016.83    4087123.8 
   15100        3.775    3892.8898    1008616.2   -1033660.4    222609.16   -811051.22    4071596.5 
   15200          3.8    3767.9666    1019619.7   -1026537.9    215465.61   -811072.27    4056069.1 
   15300        3.825     3697.867    1030331.9   -1022516.5    211457.07   -811059.48    4040541.8 
   15400         3.85    3587.5583    1040435.2   -1016212.4    205149.23   -811063.18    4025014.5 
   15500        3.875    3507.9522    1051073.8   -1011688.6    200597.07   -811091.54    4009487.2 
   15600          3.9    3447.3329    1061629.7   -1008234.9    197130.65   -811104.26    3993959.8 
   15700        3.925    3360.6522    1071154.4   -1003262.8    192173.94   -811088.88    3978432.5 
   15800         3.95    3326.8205    1078505.5   -1001309.4    190239.32   -811070.12    3962905.2 
   15900        3.975    3282.7529    1084703.6   -998774.85    187719.38   -811055.47    3947377.8 
   16000            4    3247.4241      1091067   -996740.45    185699.15   -811041.29    3931850.5 
   16100        4.025    3227.6684    1097955.2   -995574.27    184569.45   -811004.81    3916323.2 
   16200         4.05    3224.8688    1105034.7   -994326.75    184409.36   -809917.39    3900795.9 
   16300        4.075     3610.396    1115234.6   -995153.79    206455.17   -788698.62    3885268.5 
   16400          4.1    3895.9161    1121855.1   -996477.49    222782.21   -773695.28    3869741.2 
   16500        4.125    4140.6899    1129065.6   -996796.24    236779.24      -760017    3854213.9 
   16600         4.15    4369.6305    1136639.9   -998081.58    249870.88    -748210.7    3838686.6 
   16700        4.175     4777.507    1149212.7    -997955.1    273194.69   -724760.41    3823159.2 
   16800          4.2    4673.1896    1156960.7   -989297.38    267229.45   -722067.93    3807631.9 
   16900        4.225    5048.7061    1173866.2   -980473.43    288702.81   -691770.62    3792104.6 
   17000         4.25    4882.2968    1184077.2   -967031.81    279186.94   -687844.87    3776577.2 
   17100        4.275     5067.751    1205795.5   -953822.14    289791.87   -664030.28    3761049.9 
   17200          4.3    5128.4124    1227170.7    -936753.1     293260.7    -643492.4    3745522.6 
   17300        4.325    5035.7984      1245445   -919874.93     287964.7   -631910.23    3729995.3 
   17400         4.35    5171.2687    1270386.9   -901729.04    295711.37   -606017.67    3714467.9 
   17500        4.375    5154.9656    1293036.7   -884408.15     294779.1   -589629.05    3698940.6 
   17600          4.4    5221.6403    1317690.3   -864720.71     298591.8   -566128.91    3683413.3 
   17700        4.425    5473.3552    1347473.2   -845278.52    312985.75   -532292.77      3667886 
   17800         4.45    5638.8284    1377324.6   -824243.49    322448.08   -501795.41    3652358.6 
   17900        4.475    5714.4763    1408843.9   -801584.79     326773.9   -474810.89    3636831.3 
   18000          4.5     5708.885    1447401.2    -773961.6    326454.17   -447507.44      3621304 
   18100        4.525    5643.4182    1492420.8   -741374.38    322710.54   -418663.83    3605776.6 
   18200         4.55     5611.486    1534801.6   -708301.82    320884.55   -387417.27    3590249.3 
   18300        4.575    5623.9379    1579443.3   -675862.31    321596.59   -354265.71      3574722 
   18400          4.6    5625.9642    1621517.4   -644656.28    321712.47   -322943.82    3559194.7 
   18500        4.625    5692.5469    1661139.9   -615783.03     325519.9   -290263.14    3543667.3 
   18600         4.65    5782.8945    1701903.1   -586111.57    330686.29   -255425.28      3528140 
   18700        4.675    5855.7144    1745028.7   -555303.52    334850.39   -220453.13    3512612.7 
   18800          4.7    5945.7995    1790367.6   -524092.68    340001.77   -184090.91    3497085.4 
   18900        4.725    6052.9974    1836322.5    -493622.1    346131.73   -147490.38      3481558 
   19000         4.75    6201.5855    1880367.1    -466485.9    354628.52   -111857.39    3466030.7 
   19100        4.775    6463.2925    1922470.2   -443051.25    369593.85     -73457.4    3450503.4 
   19200          4.8    6893.7266    1962553.1   -422348.78    394207.58   -28141.197      3434976 
   19300        4.825     7390.172    1998310.2   -404569.13    422596.08    18026.954    3419448.7 
   19400         4.85    7889.9196    2029528.4   -390337.31    451173.41    60836.108    3403921.4 
   19500        4.875    8424.0624    2062012.2   -376063.85    481717.58    105653.73    3388394.1 
   19600          4.9    9082.3946    2095122.4   -366340.16    519363.34    153023.18    3372866.7 
   19700        4.925    9727.7801    2124839.5   -356996.04    556268.76    199272.71    3357339.4 
   19800         4.95    10364.928    2151454.5   -348572.99     592703.1    244130.11    3341812.1 
   19900        4.975    10985.393    2178795.2   -338608.57     628183.5    289574.92    3326284.8 
   20000            5     11506.24    2209007.5   -324183.58    657967.34    333783.76    3310757.4 
   20100        5.025    11947.097    2241665.9   -308010.01     683177.1    375167.09    3295230.1 
   20200         5.05    12309.467    2274321.4   -289912.73    703898.68    413985.95    3279702.8 
   20300        5.075    12645.553    2310704.7   -270116.12    723117.31    453001.19    3264175.4 
   20400          5.1    12956.071    2349704.3   -249402.33    740873.81    491471.48    3248648.1 
   20500        5.125    13213.419    2391754.1   -226457.74    755589.88    529132.15    3233120.8 
   20600         5.15     13387.14    2441225.1    -199092.6    765523.86    566431.26    3217593.5 
   20700        5.175    13556.003    2492181.4   -171492.53    775180.03     603687.5    3202066.1 
   20800          5.2    13685.156      2540953   -141246.34    782565.45    641319.11    3186538.8 
   20900        5.225    13845.483    2593572.5   -112504.66     791733.5    679228.84    3171011.5 
   21000         5.25    13986.665    2643021.1   -83477.029    799806.82    716329.79    3155484.2 
   21100        5.275    14122.686    2690939.8   -55254.863    807584.96     752330.1    3139956.8 
   21200          5.3    14259.687      2740179   -28274.413    815419.19    787144.78    3124429.5 
   21300        5.325    14390.664    2787554.3   -1135.6038    822908.89    821773.29    3108902.2 
   21400         5.35    14532.064    2833593.2    25608.943    830994.64    856603.58    3093374.8 
   21500        5.375     14715.97    2878708.5    49264.404    841511.03    890775.44    3077847.5 
   21600          5.4    14901.528    2923135.4    72187.263     852121.9    924309.17    3062320.2 
   21700        5.425    15147.066    2966612.3    91185.851    866162.64    957348.49    3046792.9 
   21800         5.45    15459.025    3006942.1    106555.19    884001.52    990556.72    3031265.5 
   21900        5.475     15843.12    3043712.4    118273.16    905965.42    1024238.6    3015738.2 
   22000          5.5    16248.821    3079568.2    129287.43    929164.87    1058452.3    3000210.9 
   22100        5.525    16654.039    3115869.9    140644.01    952336.64    1092980.6    2984683.6 
   22200         5.55    17093.755    3152249.2    150541.38    977481.15    1128022.5    2969156.2 
   22300        5.575    17496.434    3188508.2    162416.16    1000507.8    1162923.9    2953628.9 
   22400          5.6    17883.589      3228582    174795.97    1022646.7    1197442.7    2938101.6 
   22500        5.625    18161.085    3273302.6    192835.45    1038514.9    1231350.3    2922574.2 
   22600         5.65    18389.211    3322418.7    212136.28    1051559.9    1263696.2    2907046.9 
   22700        5.675    18563.715    3375538.4     233503.8    1061538.6    1295042.4    2891519.6 
   22800          5.7    18738.139    3432506.2    255404.56    1071512.9    1326917.4    2875992.3 
   22900        5.725    18878.532    3490781.2    277407.71      1079541    1356948.7    2860464.9 
   23000         5.75    19014.454    3548337.1    299903.33    1087313.5    1387216.8    2844937.6 
   23100        5.775    19179.225    3604740.3    322386.52    1096735.7    1419122.2    2829410.3 
   23200          5.8    19367.016    3660638.8     345198.2    1107474.2    1452672.4      2813883 
   23300        5.825    19611.258      3718583     367283.6    1121440.8    1488724.4    2798355.6 
   23400         5.85    19837.507    3779131.9    393525.67    1134378.6    1527904.2    2782828.3 
   23500        5.875    20060.623    3843808.1    421878.59    1147137.1    1569015.7      2767301 
   23600          5.9    20316.555    3909321.1    449221.71    1161772.2    1610993.9    2751773.6 
   23700        5.925     20596.33    3972363.8    473742.66    1177770.7    1651513.4    2736246.3 
   23800         5.95    20884.919    4036404.2    497777.67    1194273.3    1692050.9      2720719 
   23900        5.975     21151.46      4103853    523772.01    1209515.1    1733287.1    2705191.7 
   24000            6    21216.824    4186367.8    562259.31    1213252.8    1775512.1    2689664.3 
   24100        6.025      21127.8      4273803    609492.05      1208162    1817654.1      2674137 
   24200         6.05    21076.625      4360334    655921.07    1205235.7    1861156.8    2658609.7 
   24300        6.075    21037.278    4450142.9    702077.45    1202985.7    1905063.1    2643082.4 
   24400          6.1      20922.6    4547112.7    751492.89      1196428    1947920.9      2627555 
   24500        6.125    20797.566      4652091    802839.43    1189278.1    1992117.6    2612027.7 
   24600         6.15    20564.159    4759469.5    857740.42    1175931.1    2033671.5    2596500.4 
   24700        6.175    20231.615    4868704.1    917005.21    1156915.1    2073920.3      2580973 
   24800          6.2    19799.656    4978438.1    980197.12    1132214.1    2112411.2    2565445.7 
   24900        6.225    19348.141    5096566.6    1042718.3    1106394.9    2149113.2    2549918.4 
   25000         6.25    18897.618    5221191.6    1103702.8    1080632.4    2184335.1    2534391.1 
   25100        6.275     18443.66    5347792.3      1163574    1054673.5    2218247.5    2518863.7 
   25200          6.3    18041.982    5469627.9    1219674.7    1031704.1    2251378.8    2503336.4 
   25300        6.325    17683.379    5581612.5    1272653.8    1011197.9    2283851.7    2487809.1 
   25400         6.35    17362.041    5684826.6    1322577.9    992822.69    2315400.6    2472281.8 
   25500        6.375    17074.162    5785256.4    1371673.5    976360.76    2348034.2    2456754.4 
   25600          6.4    16811.942    5891683.5    1422139.9    961366.11      2383506    2441227.1 
   25700        6.425    16465.525      6005853    1481178.2    941556.77    2422734.9    2425699.8 
   25800         6.45    16132.569    6129455.5    1541643.5    922517.18    2464160.7    2410172.4 
   25900        6.475    15680.061      6266544    1607116.9    896641.16    2503758.1    2394645.1 
   26000          6.5    15230.589      6404721    1670861.1    870938.74    2541799.8    2379117.8 
   26100        6.525    14797.346      6547298    1732793.4    846164.42    2578957.9    2363590.5 
   26200         6.55    14376.156    6694203.6    1793343.6    822079.25    2615422.9    2348063.1 
   26300        6.575    13982.864    6841143.5    1851404.1    799589.44    2650993.5    2332535.8 
   26400          6.6    13567.379    6980196.2      1908612    775830.54    2684442.6    2317008.5 
   26500        6.625    13236.455    7105401.5    1960918.2    756907.18    2717825.3    2301481.2 
   26600         6.65    12911.892    7221551.9    2011786.7    738347.49    2750134.2    2285953.8 
   26700        6.675    12655.855    7333231.5    2057507.9    723706.39    2781214.3    2270426.5 
   26800          6.7     12433.17    7447058.1      2101504     710972.5    2812476.5    2254899.2 
   26900        6.725    12195.403    7564694.5    2145515.2    697376.14    2842891.3    2239371.8 
   27000         6.75    11977.065    7690058.3    2189316.6    684890.78    2874207.4    2223844.5 
   27100        6.775    11742.186    7818291.8    2232471.1     671459.6    2903930.7    2208317.2 
   27200          6.8    11567.546      7949320    2274054.8    661473.08    2935527.9    2192789.9 
   27300        6.825    11626.125    8089720.1    2315969.5    664822.79    2980792.3    2177262.5 
   27400         6.85    12215.456    8257221.9    2360692.5    698522.81    3059215.3    2161735.2 
   27500        6.875    12794.144    8439500.9    2410488.6    731614.24    3142102.8    2146207.9 
   27600          6.9    12773.753    8641674.6    2489885.5    730448.24    3220333.8    2130680.6 
   27700        6.925    12651.061      8860760    2585991.4    723432.24    3309423.6    2115153.2 
   27800         6.95    12421.452    9103131.7    2696657.5     710302.4    3406959.9    2099625.9 
   27900        6.975    12527.333    9370819.4    2810907.1    716357.03    3527264.1    2084098.6 
   28000            7    13292.657    9668484.1    2930234.5       760121    3690355.5    2068571.2 
   28100        7.025    13913.474    9961117.4    3049092.1    795621.49    3844713.6    2053043.9 
   28200         7.05    14324.846     10255944    3166654.5    819145.18    3985799.7    2037516.6 
   28300        7.075    15099.719     10571269    3278195.8    863455.13    4141650.9    2021989.3 
   28400          7.1    16009.949     10894378    3385273.2    915505.31    4300778.5    2006461.9 
   28500        7.125    16873.722     11188763    3487634.5    964898.88    4452533.4    1990934.6 
   28600         7.15    18041.508     11491948    3584729.1      1031677    4616406.1    1975407.3 
   28700        7.175    19157.016     11812430      3696023    1095465.7    4791488.6      1959880 
   28800          7.2    19962.774     12164478    3828140.9    1141541.8    4969682.7    1944352.6 
   28900        7.225    20708.855     12528146    3962821.5    1184205.3    5147026.8    1928825.3 
   29000         7.25    21376.471     12894612      4101342      1222382    5323723.9      1913298 
   29100        7.275    22119.015     13276493    4234770.4    1264843.3    5499613.6    1897770.6 
   29200          7.3    22990.078     13659076    4357508.2    1314653.7    5672161.9    1882243.3 
   29300        7.325     23877.95     14015103    4474103.7    1365425.3    5839529.1      1866716 
   29400         7.35    24677.534     14354721    4584604.1    1411148.4    5995752.5    1851188.7 
   29500        7.375    25438.606     14697529    4685743.1    1454669.1    6140412.3    1835661.3 
   29600          7.4    25944.057     15051502    4789811.3    1483572.7      6273384      1820134 
   29700        7.425    26325.256     15408321    4891704.9    1505370.9    6397075.8    1804606.7 
   29800         7.45    26778.269     15730889    4988161.3    1531275.8    6519437.1    1789079.4 
   29900        7.475     27355.79     16074531    5077780.7    1564300.5    6642081.1      1773552 
   30000          7.5    28007.289     16451279    5173479.3    1601555.5    6775034.9    1758024.7 
   30100        7.525    27919.038     16905661    5336090.6      1596509    6932599.6    1742497.4 
   30200         7.55    27732.992     17342619    5522608.1    1585870.2    7108478.3      1726970 
   30300        7.575     27165.22     17817833    5726281.5    1553403.1    7279684.6    1711442.7 
   30400          7.6    26479.102     18344270      5941592    1514168.4    7455760.4    1695915.4 
   30500        7.625    25981.001     18826331    6152067.4    1485685.2    7637752.7    1680388.1 
   30600         7.65    25713.357     19328293      6344838    1470380.4    7815218.3    1664860.7 
   30700        7.675    25906.687     19870803    6514091.5    1481435.7    7995527.2    1649333.4 
   30800          7.7    26131.049     20376766    6683053.8    1494265.5    8177319.3    1633806.1 
   30900        7.725    25410.522     20868632    6897541.1    1453063.2    8350604.3    1618278.8 
   31000         7.75     24299.62     21435497    7129889.6    1389537.9    8519427.5    1602751.4 
   31100        7.775    22844.944     21980023    7374520.2    1306354.4    8680874.6    1587224.1 
   31200          7.8    21598.748     22548440    7598943.7    1235092.5    8834036.2    1571696.8 
   31300        7.825    20722.163     23155204      7793811    1184966.3    8978777.3    1556169.4 
   31400         7.85    20159.942     23666979    7965447.7    1152816.5    9118264.3    1540642.1 
   31500        7.875    19663.397     24190958    8137734.9    1124422.4    9262157.3    1525114.8 
   31600          7.9    19818.812     24857029    8322298.2    1133309.5    9455607.7    1509587.5 
   31700        7.925    21187.152     25542430    8516700.8      1211556    9728256.8    1494060.1 
   31800         7.95    22183.475     26249778    8716309.6    1268529.3    9984838.9    1478532.8 
   31900        7.975    22644.251     27035992    8968981.4    1294878.1     10263860    1463005.5 
   32000            8    23001.465     27690547    9232904.4    1315304.9     10548209    1447478.2 
   32100        8.025    22982.409     28461945    9536142.8    1314215.2     10850358    1431950.8 
   32200         8.05    23007.308     29302801    9871398.4      1315639     11187037    1416423.5 
   32300        8.075      23351.3     30197567     10196610    1335309.7     11531920    1400896.2 
   32400          8.1    24394.459     31124213     10478105    1394961.2     11873066    1385368.8 
   32500        8.125    25872.837     31924710     10762583      1479500     12242083    1369841.5 
   32600         8.15    27139.457     32840394     11090971    1551929.8     12642901    1354314.2 
   32700        8.175    28016.777     33877210     11454593    1602098.1     13056691    1338786.9 
   32800          8.2    29329.829     35002282     11805393      1677183     13482576    1323259.5 
   32900        8.225     31399.94     36009384     12101878    1795559.2     13897437    1307732.2 
   33000         8.25    33743.176     36917201     12355058    1929553.7     14284612    1292204.9 
   33100        8.275    35511.505     37957663     12612523      2030673     14643196    1276677.6 
   33200          8.3    36061.983     39032116     12917240    2062151.3     14979391    1261150.2 
   33300        8.325     35032.32     40180556     13296654    2003271.5     15299926    1245622.9 
   33400         8.35    33637.951     41214674     13705958    1923536.6     15629494    1230095.6 
   33500        8.375    32468.299     42357832     14144696    1856651.8     16001348    1214568.2 
   33600          8.4    31325.062     43628221     14599788    1791277.5     16391066    1199040.9 
   33700        8.425    31135.744     44946044     15033993    1780451.6     16814445    1183513.6 
   33800         8.45    31497.157     46256283     15464386    1801118.5     17265505    1167986.3 
   33900        8.475    30682.785     47626948     15951529    1754549.8     17706079    1152458.9 
   34000          8.5    29112.789     49049341     16467101    1664771.9     18131872    1136931.6 
   34100        8.525    28117.276     50430320     16933304      1607845     18541149    1121404.3 
   34200         8.55    29027.353     51856126     17312602    1659886.3     18972488      1105877 
   34300        8.575      31544.5     53451365     17677979    1803825.7     19481804    1090349.6 
   34400          8.6    32659.448     55173566     18138256    1867582.4     20005838    1074822.3 
   34500        8.625    32002.393     56838754     18729373    1830009.6     20559383      1059295 
   34600         8.65    31076.669     58645872     19357348    1777073.5     21134422    1043767.6 
   34700        8.675    31505.847     60618652     19963230    1801615.4     21764845    1028240.3 
   34800          8.7    33453.003     62625531     20530106    1912960.6     22443067      1012713 
   34900        8.725    34835.057     64766293     21167068    1991991.4     23159060    997185.66 
   35000         8.75    35821.884     67080456     21883652    2048421.6     23932074    981658.33 
   35100        8.775    38066.244     69446972     22519118      2176762     24695880    966131.01 
   35200          8.8    41620.209     71726084     23051215    2379990.2     25431205    950603.68 
   35300        8.825    44458.955     74089544     23589387    2542319.8     26131707    935076.35 
   35400         8.85    43252.283     76583412     24318091      2473318     26791409    919549.02 
   35500        8.875    40051.288     79289292     25169924    2290273.8     27460198     904021.7 
   35600          8.9    39489.785     82153124     25961885    2258165.1     28220050    888494.37 
   35700        8.925    40141.631     85144244     26725135    2295439.9     29020575    872967.04 
   35800         8.95    37372.094     88375974     27674315    2137068.1     29811383    857439.72 
   35900        8.975    37287.096     91735919     28534578    2132207.6     30666786    841912.39 
   36000            9    42218.358     95304240     29263215    2414194.5     31677410    826385.06 
   36100        9.025    45756.411     99031694     30057790    2616512.9     32674302    810857.73 
   36200         9.05    45319.104 1.0321041e+08     31120080    2591506.1     33711586    795330.41 
   36300        9.075    43279.738 1.0744296e+08     32199919      2474888     34674807    779803.08 
   36400          9.1    44407.428 1.1196593e+08     33201602    2539373.3     35740975    764275.75 
   36500        9.125    45726.779 1.1719493e+08     34438324    2614818.4     37053143    748748.42 
   36600         9.15     50210.34 1.2235678e+08     35438621    2871204.2     38309825     733221.1 
   36700        9.175    53585.083 1.2773978e+08     36494777    3064183.9     39558961    717693.77 
   36800          9.2     51233.14 1.3350139e+08     37796761    2929691.5     40726452    702166.44 
   36900        9.225    48467.489 1.3968479e+08     39165688    2771541.8     41937230    686639.12 
   37000         9.25    49161.497 1.4663429e+08     40578799    2811227.7     43390027    671111.79 
   37100        9.275    52981.801 1.5420329e+08     42026856    3029686.1     45056542    655584.46 
   37200          9.3    61231.635 1.6219779e+08     43314690    3501440.7     46816131    640057.13 
   37300        9.325    60208.593 1.7065128e+08     44983423    3442939.6     48426363    624529.81 
   37400         9.35    58801.988 1.7951855e+08     46686057      3362505     50048562    609002.48 
   37500        9.375    57826.499 1.8954932e+08     48562736      3306723     51869459    593475.15 
   37600          9.4    63178.361 1.999342e+08     50201561    3612761.4     53814323    577947.82 
   37700        9.425    63490.741 2.113133e+08     52166553    3630624.3     55797177     562420.5 
   37800         9.45    62696.338 2.2371408e+08     54287952    3585197.6     57873149    546893.17 
   37900        9.475    67161.181 2.3815222e+08     56598653      3840513     60439166    531365.84 
   38000          9.5    78332.018 2.5337391e+08     58674768    4479300.9     63154069    515838.52 
   38100        9.525    75889.086 2.697361e+08     61278350    4339605.4     65617955    500311.19 
   38200         9.55    73680.396 2.8779855e+08     64003098    4213304.7     68216403    484783.86 
   38300        9.575     78358.18 3.0752785e+08     66631712    4480796.9     71112509    469256.53 
   38400          9.6     78519.63 3.3006136e+08     69767155    4490029.2     74257184    453729.21 
   38500        9.625    86626.909 3.5633281e+08     73107225      4953632     78060857    438201.88 
   38600         9.65    96010.033 3.8455379e+08     76463508    5490192.1     81953701    422674.55 
   38700        9.675    96471.992 4.156493e+08     80335620    5516608.5     85852228    407147.22 
   38800          9.7     98228.07 4.4914038e+08     84248988    5617027.3     89866015     391619.9 
   38900        9.725    109379.02 4.8934806e+08     88671982      6254678     94926660    376092.57 
   39000         9.75    123560.85 5.3401268e+08     93248304    7065644.8 1.0031395e+08    360565.24 
   39100        9.775       130353 5.8361085e+08     98384432    7454043.8 1.0583848e+08    345037.92 
   39200          9.8    136219.47 6.3872625e+08 1.0378637e+08    7789509.2 1.1157588e+08    329510.59 
   39300        9.825    155927.77 7.0452237e+08 1.0980948e+08    8916499.3 1.1872598e+08    313983.26 
   39400         9.85    167518.42 7.7826852e+08 1.164215e+08    9579293.6 1.2600079e+08    298455.93 
   39500        9.875    179186.26  8.63452e+08 1.237499e+08     10246502 1.339964e+08    282928.61 
   39600          9.9    198678.98 9.6611011e+08 1.3194368e+08     11361164 1.4330485e+08    267401.28 
   39700        9.925    212732.65 1.086306e+09 1.4111776e+08     12164803 1.5328256e+08    251873.95 
   39800         9.95    233320.17 1.2324199e+09 1.5144701e+08     13342070 1.6478908e+08    236346.62 
   39900        9.975    254592.01 1.4107253e+09 1.6321673e+08     14558469 1.7777519e+08     220819.3 
   40000           10    279046.57 1.6305174e+09 1.7677411e+08     15956867 1.9273098e+08    205291.97 
   40100       10.025    309072.26 1.9077201e+09 1.9254552e+08     17673841 2.1021936e+08    189764.64 
   40200        10.05    340768.33 2.2620115e+09 2.1117825e+08     19486334 2.3066459e+08    174237.32 
   40300       10.075    379327.97 2.7261077e+09 2.3349039e+08     21691311 2.551817e+08    158709.99 
   40400         10.1    428247.12 3.3499402e+09 2.6066135e+08     24488680 2.8515003e+08    143182.66 
ERROR: Lost atoms: original 442392 current 442338 (../thermo.cpp:439)
Last command: run 50000
