LAMMPS (29 Sep 2021)
  using 1 OpenMP thread(s) per MPI task
Reading data file ...
  orthogonal box = (-0.27404403 -0.27193217 0.0000000) to (101.49143 101.48932 619.76800)
  2 by 1 by 12 MPI processor grid
  reading atoms ...
  442392 atoms
  reading velocities ...
  442392 velocities
  read_data CPU = 4.434 seconds
221191 atoms in group g_left
221201 atoms in group g_right

CITE-CITE-CITE-CITE-CITE-CITE-CITE-CITE-CITE-CITE-CITE-CITE-CITE

Your simulation uses code contributions which should be cited:
- GPU package (short-range, long-range and three-body potentials):
The log file lists these citations in BibTeX format.

CITE-CITE-CITE-CITE-CITE-CITE-CITE-CITE-CITE-CITE-CITE-CITE-CITE


--------------------------------------------------------------------------
- Using acceleration for eam/alloy:
-  with 12 proc(s) per device.
-  Horizontal vector operations: ENABLED
-  Shared memory system: No
--------------------------------------------------------------------------
Device 0: Tesla V100-SXM2-32GB, 80 CUs, 28/32 GB, 1.5 GHZ (Mixed Precision)
Device 1: Tesla V100-SXM2-32GB, 80 CUs, 1.5 GHZ (Mixed Precision)
--------------------------------------------------------------------------

Initializing Device and compiling on process 0...Done.
Initializing Devices 0-1 on core 0...Done.
Initializing Devices 0-1 on core 1...Done.
Initializing Devices 0-1 on core 2...Done.
Initializing Devices 0-1 on core 3...Done.
Initializing Devices 0-1 on core 4...Done.
Initializing Devices 0-1 on core 5...Done.
Initializing Devices 0-1 on core 6...Done.
Initializing Devices 0-1 on core 7...Done.
Initializing Devices 0-1 on core 8...Done.
Initializing Devices 0-1 on core 9...Done.
Initializing Devices 0-1 on core 10...Done.
Initializing Devices 0-1 on core 11...Done.

Setting up Verlet run ...
  Unit style    : metal
  Current step  : 0
  Time step     : 0.00025
Per MPI rank memory allocation (min/avg/max) = 8.756 | 11.14 | 11.72 Mbytes
Step Time Temp Press PotEng KinEng TotEng Volume 
       0            0    7179.8376    65490.161   -1714223.8    410568.42   -1303655.4    6418182.2 
     100        0.025    7179.5156    65583.386   -1714242.4    410550.01   -1303692.4    6407826.4 
     200         0.05    7178.6203    65698.852   -1714212.7    410498.81   -1303713.9    6397470.7 
     300        0.075    7178.8288    65801.926   -1714219.1    410510.73   -1303708.3    6387114.9 
     400          0.1    7179.2846    65917.028   -1714230.2     410536.8   -1303693.4    6376759.1 
     500        0.125    7179.3417    66031.767   -1714234.2    410540.06   -1303694.2    6366403.3 
     600         0.15    7179.3669    66128.875   -1714248.8     410541.5   -1303707.3    6356047.5 
     700        0.175    7178.9108    66234.492   -1714228.2    410515.42   -1303712.8    6345691.7 
     800          0.2    7178.3345    66338.443   -1714187.8    410482.47   -1303705.4      6335336 
     900        0.225     7178.976     66431.25   -1714216.4    410519.15   -1303697.2    6324980.2 
    1000         0.25    7179.0959    66518.917   -1714232.2    410526.01   -1303706.2    6314624.4 
    1100        0.275      7179.46    66615.215   -1714265.4    410546.83   -1303718.6    6304268.6 
    1200          0.3    7178.7918    66735.862   -1714227.8    410508.62   -1303719.2    6293912.8 
    1300        0.325    7178.8432    66843.526     -1714223    410511.56   -1303711.5    6283557.1 
    1400         0.35    7178.7637    66951.102   -1714212.4    410507.01   -1303705.4    6273201.3 
    1500        0.375    7179.2753    67065.506   -1714240.2    410536.26   -1303703.9    6262845.5 
    1600          0.4    7178.8574    67188.327   -1714215.7    410512.37   -1303703.3    6252489.7 
    1700        0.425    7178.8841    67285.502   -1714211.5     410513.9   -1303697.6    6242133.9 
    1800         0.45    7179.6323    67355.234   -1714246.8    410556.68   -1303690.1    6231778.1 
    1900        0.475    7179.6098    67457.842     -1714242     410555.4   -1303686.6    6221422.4 
    2000          0.5    7179.4019    67590.312   -1714227.8    410543.51   -1303684.3    6211066.6 
    2100        0.525    7179.1589     67723.61   -1714213.6    410529.61     -1303684    6200710.8 
    2200         0.55    7179.5797    67829.581   -1714232.3    410553.67   -1303678.6      6190355 
    2300        0.575     7182.952    67832.651   -1714419.5    410746.51     -1303673    6179999.2 
    2400          0.6    7189.7855    67872.877   -1714816.6    411137.28   -1303679.4    6169643.5 
    2500        0.625    7176.5715    68496.971   -1714072.1    410381.66   -1303690.4    6159287.7 
    2600         0.65    7153.9347    70111.672   -1712787.1     409087.2   -1303699.9    6148931.9 
    2700        0.675    7135.6506    72443.239   -1711738.7    408041.65   -1303697.1    6138576.1 
    2800          0.7    7121.5512      74093.8   -1710921.5     407235.4   -1303686.1    6128220.3 
    2900        0.725    7104.1524    75517.327   -1709928.6    406240.48   -1303688.1    6117864.5 
    3000         0.75    7088.0842    76979.633     -1709025    405321.64   -1303703.3    6107508.8 
    3100        0.775    7070.0611    78468.635   -1708005.3    404291.01   -1303714.3      6097153 
    3200          0.8    7052.4741    79974.518   -1706994.6    403285.33   -1303709.2    6086797.2 
    3300        0.825    7035.4423    81493.803   -1706007.9    402311.39   -1303696.6    6076441.4 
    3400         0.85      7018.74    82985.956   -1705043.2     401356.3   -1303686.9    6066085.6 
    3500        0.875    7000.2837    84529.032   -1703980.4     400300.9   -1303679.5    6055729.9 
    3600          0.9         6982      86122.2   -1702924.5    399255.37   -1303669.2    6045374.1 
    3700        0.925    6963.3386    87773.915   -1701848.8    398188.25   -1303660.6    6035018.3 
    3800         0.95    6945.2961    89448.535   -1700821.4    397156.51   -1303664.9    6024662.5 
    3900        0.975    6927.0162    91181.232   -1699796.3     396111.2   -1303685.1    6014306.7 
    4000            1    6909.5925    92966.698   -1698824.4    395114.85   -1303709.5    6003950.9 
    4100        1.025    6888.6105    95097.819   -1697636.8    393915.03   -1303721.8    5993595.2 
    4200         1.05     6856.271    97834.515   -1695790.6    392065.74   -1303724.8    5983239.4 
    4300        1.075     6824.172    100851.76   -1693953.7    390230.21   -1303723.5    5972883.6 
    4400          1.1    6781.1456    103866.19   -1691492.8    387769.81     -1303723    5962527.8 
    4500        1.125    6742.6987    107367.07   -1689295.7    385571.28   -1303724.4      5952172 
    4600         1.15    6703.0069    110795.95   -1687023.4    383301.56   -1303721.8    5941816.3 
    4700        1.175    6662.1399    114360.25   -1684682.9    380964.64   -1303718.3    5931460.5 
    4800          1.2    6621.3127    118303.61   -1682348.7       378630   -1303718.7    5921104.7 
    4900        1.225    6579.0394    122134.86   -1679933.9    376212.66   -1303721.3    5910748.9 
    5000         1.25      6535.36    126017.97   -1677443.5    373714.92   -1303728.5    5900393.1 
    5100        1.275    6488.5442    130173.13   -1674785.1    371037.83   -1303747.3    5890037.3 
    5200          1.3    6435.5227    134386.22   -1671777.1    368005.87   -1303771.2    5879681.6 
    5300        1.325    6380.2482    138540.53   -1668619.7    364845.08   -1303774.6    5869325.8 
    5400         1.35    6324.8428    142731.35   -1665433.8     361676.8     -1303757      5858970 
    5500        1.375    6271.4583    146934.15   -1662359.6    358624.09   -1303735.5    5848614.2 
    5600          1.4    6215.3689     151060.4   -1659151.8     355416.7   -1303735.1    5838258.4 
    5700        1.425    6160.2637    155200.99     -1656007    352265.59   -1303741.4    5827902.7 
    5800         1.45    6106.3125    159320.02   -1652912.7    349180.47   -1303732.2    5817546.9 
    5900        1.475    6048.9673    163756.31   -1649621.5    345901.27   -1303720.2    5807191.1 
    6000          1.5    5991.4832    168501.39   -1646333.9    342614.13   -1303719.8    5796835.3 
    6100        1.525    5935.7889    173340.54   -1643155.7    339429.33   -1303726.3    5786479.5 
    6200         1.55    5878.8424    178158.39   -1639897.4    336172.93   -1303724.5    5776123.7 
    6300        1.575    5821.2235    183099.77   -1636597.2    332878.08   -1303719.2      5765768 
    6400          1.6    5765.6124    188046.67   -1633417.1    329698.04     -1303719    5755412.2 
    6500        1.625    5708.2783    192934.73   -1630141.8    326419.47   -1303722.3    5745056.4 
    6600         1.65    5650.4309    197875.92   -1626835.5    323111.55     -1303724    5734700.6 
    6700        1.675    5593.0484    202897.99   -1623555.6    319830.22   -1303725.3    5724344.8 
    6800          1.7    5536.0252    207809.52   -1620297.4    316569.43     -1303728    5713989.1 
    6900        1.725    5478.4296    212692.92   -1617001.7    313275.92   -1303725.8    5703633.3 
    7000         1.75    5427.3801     217340.7   -1614069.8    310356.72     -1303713    5693277.5 
    7100        1.775    5391.0735    220800.87   -1611980.5    308280.58   -1303699.9    5682921.7 
    7200          1.8     5359.371    223299.95   -1610168.3    306467.72   -1303700.5    5672565.9 
    7300        1.825    5324.0663    225284.83     -1608163    304448.88   -1303714.1    5662210.1 
    7400         1.85    5308.5196    227017.61   -1607289.3    303559.86   -1303729.5    5651854.4 
    7500        1.875    5296.9499    228443.83   -1606627.3    302898.26     -1303729    5641498.6 
    7600          1.9    5282.3533    229903.29   -1605779.9    302063.58   -1303716.4    5631142.8 
    7700        1.925    5262.5432    231071.43   -1604650.8    300930.77     -1303720      5620787 
    7800         1.95    5245.5657    231690.88   -1603697.5    299959.93   -1303737.5    5610431.2 
    7900        1.975    5232.5704    232291.61   -1602962.2    299216.82   -1303745.3    5600075.5 
    8000            2    5213.0982    232842.97   -1601835.6    298103.33   -1303732.3    5589719.7 
    8100        2.025      5203.76    233315.28   -1601287.2    297569.34   -1303717.8    5579363.9 
    8200         2.05    5190.8743    233941.31   -1600555.2    296832.49   -1303722.7    5569008.1 
    8300        2.075    5179.5589    234933.92   -1599922.7    296185.43   -1303737.2    5558652.3 
    8400          2.1    5164.0767    235877.52   -1599042.8    295300.11   -1303742.7    5548296.5 
    8500        2.125    5155.0779    236585.02   -1598522.4    294785.53   -1303736.8    5537940.8 
    8600         2.15    5143.6148    237384.61   -1597871.4    294130.02   -1303741.3      5527585 
    8700        2.175    5134.4225    238475.82   -1597351.5    293604.37   -1303747.1    5517229.2 
    8800          2.2    5124.4361    239702.74   -1596784.8    293033.32   -1303751.5    5506873.4 
    8900        2.225    5119.9307    241259.51   -1596529.2    292775.68   -1303753.5    5496517.6 
    9000         2.25    5115.7685    242961.26   -1596291.7    292537.68   -1303754.1    5486161.9 
    9100        2.275    5111.0452    244807.59     -1596021    292267.58   -1303753.4    5475806.1 
    9200          2.3    5111.1613    246791.56   -1596026.5    292274.22   -1303752.3    5465450.3 
    9300        2.325    5109.4909    248744.23   -1595928.2     292178.7   -1303749.5    5455094.5 
    9400         2.35    5108.4143    250810.81   -1595856.6    292117.14   -1303739.5    5444738.7 
    9500        2.375    5104.2743    252962.41   -1595605.1    291880.39   -1303724.7    5434382.9 
    9600          2.4    5101.3291    255182.49   -1595428.3    291711.98   -1303716.3    5424027.2 
    9700        2.425    5094.9314    257368.42   -1595059.5    291346.13   -1303713.4    5413671.4 
    9800         2.45    5091.1979    259503.17   -1594850.9    291132.64   -1303718.2    5403315.6 
    9900        2.475    5082.8135    261657.83   -1594371.3    290653.19   -1303718.1    5392959.8 
   10000          2.5    5076.9133    263644.77     -1594023     290315.8   -1303707.2      5382604 
   10100        2.525    5062.3338    265930.55   -1593185.8    289482.09   -1303703.8    5372248.3 
   10200         2.55    5034.9801    269282.51   -1591631.2    287917.91   -1303713.3    5361892.5 
   10300        2.575    4991.0244     274293.3   -1589127.5    285404.37   -1303723.1    5351536.7 
   10400          2.6    4928.3053    279154.54   -1585535.3    281817.87   -1303717.4    5341180.9 
   10500        2.625    4882.4871    284432.06   -1582896.2    279197.82   -1303698.3    5330825.1 
   10600         2.65    4827.2181    289364.56   -1579714.9    276037.35   -1303677.5    5320469.3 
   10700        2.675    4767.1405    293783.85   -1576270.6     272601.9   -1303668.7    5310113.6 
   10800          2.7    4719.9951    299186.19   -1573572.6    269905.96   -1303666.6    5299757.8 
   10900        2.725    4664.2577    304254.44   -1570380.5     266718.7   -1303661.8      5289402 
   11000         2.75    4605.3714    309373.07   -1567009.9    263351.37   -1303658.5    5279046.2 
   11100        2.775    4547.4804     314907.2   -1563703.1    260040.96   -1303662.1    5268690.4 
   11200          2.8    4490.5414    320280.65     -1560455    256784.98     -1303670    5258334.7 
   11300        2.825    4424.9119    325537.29   -1556706.2    253032.06   -1303674.2    5247978.9 
   11400         2.85    4357.1916    331249.67   -1552826.3    249159.58   -1303666.7    5237623.1 
   11500        2.875    4285.3584    336753.99   -1548710.8     245051.9     -1303659    5227267.3 
   11600          2.9    4210.1308    341918.67   -1544412.4    240750.12   -1303662.2    5216911.5 
   11700        2.925    4134.8685    347342.82   -1540120.3    236446.36     -1303674    5206555.7 
   11800         2.95     4057.525    353251.35   -1535706.8    232023.58   -1303683.2      5196200 
   11900        2.975    3981.1562    359473.28   -1531334.8    227656.54   -1303678.3    5185844.2 
   12000            3    3909.7279    365672.94   -1527242.8    223572.02   -1303670.8    5175488.4 
   12100        3.025    3835.9981    371541.71   -1523023.1     219355.9   -1303667.3    5165132.6 
   12200         3.05    3767.9794    377463.28   -1519132.1    215466.34   -1303665.7    5154776.8 
   12300        3.075    3701.5903    383441.03   -1515341.5    211669.98   -1303671.5    5144421.1 
   12400          3.1    3636.7133    389311.57   -1511637.4    207960.09   -1303677.3    5134065.3 
   12500        3.125    3571.3038    395062.87   -1507897.6    204219.74   -1303677.9    5123709.5 
   12600         3.15     3510.726    401223.61   -1504432.9    200755.68   -1303677.2    5113353.7 
   12700        3.175    3451.1761    407040.93   -1501023.7    197350.41   -1303673.3    5102997.9 
   12800          3.2    3425.7336    410760.57   -1499562.1    195895.52   -1303666.5    5092642.1 
   12900        3.225    3413.7059    412433.99     -1498872    195207.73   -1303664.3    5082286.4 
   13000         3.25    3378.3159    413832.37   -1496847.5    193184.01   -1303663.5    5071930.6 
   13100        3.275    3363.6425    415963.94   -1496006.9    192344.94     -1303662    5061574.8 
   13200          3.3    3352.2062    418784.25   -1495349.6    191690.97   -1303658.6      5051219 
   13300        3.325    3316.6532    421370.39   -1493313.1    189657.92   -1303655.2    5040863.2 
   13400         3.35     3331.535    422777.59   -1494158.9    190508.91   -1303649.9    5030507.5 
   13500        3.375    3301.9146    424237.87   -1492459.8    188815.12   -1303644.6    5020151.7 
   13600          3.4    3307.4822    425935.29   -1492778.1    189133.49   -1303644.6    5009795.9 
   13700        3.425    3310.8571    427923.22   -1492974.4    189326.48   -1303647.9    4999440.1 
   13800         3.45     3294.679    429601.47   -1492055.8    188401.36   -1303654.4    4989084.3 
   13900        3.475    3315.7084    430217.79   -1493266.3    189603.89   -1303662.4    4978728.5 
   14000          3.5    3299.1487    430532.28   -1492320.7    188656.95   -1303663.7    4968372.8 
   14100        3.525    3324.3894    430734.83   -1493762.7     190100.3   -1303662.4      4958017 
   14200         3.55    3312.5849     431441.1     -1493088    189425.28   -1303662.7    4947661.2 
   14300        3.575    3328.9797    432451.82   -1494027.2    190362.79   -1303664.4    4937305.4 
   14400          3.6    3334.1568    433573.83   -1494324.9    190658.84   -1303666.1    4926949.6 
   14500        3.625    3336.1579    434915.03   -1494436.6    190773.27   -1303663.3    4916593.9 
   14600         3.65    3352.6414    436424.13   -1495374.4    191715.86   -1303658.5    4906238.1 
   14700        3.675    3346.0786    438087.79   -1494998.9    191340.57   -1303658.3    4895882.3 
   14800          3.7    3364.1972     439692.3   -1496039.5    192376.65   -1303662.9    4885526.5 
   14900        3.725     3360.473    441667.36     -1495832    192163.69   -1303668.3    4875170.7 
   15000         3.75    3365.5362    444372.33   -1496117.2    192453.22   -1303663.9    4864814.9 
   15100        3.775    3363.4827    446838.42   -1495978.7    192335.79   -1303642.9    4854459.2 
   15200          3.8    3364.8558    449169.17   -1496039.8    192414.32   -1303625.5    4844103.4 
   15300        3.825    3357.4037    451582.78   -1495614.9    191988.18   -1303626.7    4833747.6 
   15400         3.85    3349.3417    454228.56   -1495168.3    191527.16   -1303641.2    4823391.8 
   15500        3.875    3343.9902    456990.87   -1494872.5    191221.14   -1303651.4      4813036 
   15600          3.9    3333.5328    459463.59   -1494270.5    190623.16   -1303647.3    4802680.2 
   15700        3.925    3327.9339    461636.39   -1493947.2    190302.99   -1303644.2    4792324.5 
   15800         3.95    3299.5471     464191.4   -1492330.4    188679.73   -1303650.7    4781968.7 
   15900        3.975    3258.5597     468993.4   -1489990.3    186335.93   -1303654.4    4771612.9 
   16000            4    3200.9071    475193.54   -1486694.4    183039.15   -1303655.3    4761257.1 
   16100        4.025    3133.1276    481261.55   -1482823.5    179163.28   -1303660.2    4750901.3 
   16200         4.05    3071.4164     487951.9   -1479304.7    175634.42   -1303670.3    4740545.6 
   16300        4.075    2998.8706    494553.15   -1475160.7    171485.99   -1303674.7    4730189.8 
   16400          4.1    2929.0637    501710.59   -1471167.9    167494.19   -1303673.7      4719834 
   16500        4.125    2845.2468    508715.09   -1466373.7    162701.24   -1303672.5    4709478.2 
   16600         4.15    2767.9192    515608.51   -1461952.5    158279.38   -1303673.1    4699122.4 
   16700        4.175    2688.3229    522820.64   -1457411.3    153727.78   -1303683.5    4688766.6 
   16800          4.2     2611.505    530144.69   -1453038.8    149335.06   -1303703.8    4678410.9 
   16900        4.225    2531.9896    537221.07   -1448501.2    144788.09   -1303713.1    4668055.1 
   17000         4.25    2458.9226    544234.08   -1444311.1    140609.86   -1303701.3    4657699.3 
   17100        4.275    2380.3781    551037.17   -1439813.6    136118.41   -1303695.2    4647343.5 
   17200          4.3    2309.0785     557538.9   -1435732.5    132041.25   -1303691.2    4636987.7 
   17300        4.325    2232.6872    564310.37   -1431356.6    127672.93   -1303683.6      4626632 
   17400         4.35    2163.1734    570923.09   -1427378.6    123697.88   -1303680.7    4616276.2 
   17500        4.375    2081.6353    577538.49   -1422721.4    119035.24   -1303686.1    4605920.4 
   17600          4.4    2008.9577    584672.04   -1418569.2    114879.29   -1303689.9    4595564.6 
   17700        4.425    1939.9078     591793.1   -1414619.1    110930.76   -1303688.4    4585208.8 
   17800         4.45    1872.1468    598804.19   -1410736.8    107055.96   -1303680.9      4574853 
   17900        4.475    1809.8441    605719.91   -1407163.3    103493.27     -1303670    4564497.3 
   18000          4.5    1749.5254    612049.05   -1403704.1    100044.03   -1303660.1    4554141.5 
   18100        4.525    1694.3053    618353.49   -1400538.8    96886.351   -1303652.4    4543785.7 
   18200         4.55    1636.5694    624973.67   -1397232.4    93584.808   -1303647.5    4533429.9 
   18300        4.575    1582.7599    632385.06   -1394162.2    90507.792   -1303654.4    4523074.1 
   18400          4.6    1543.2224    638203.55   -1391912.8    88246.894   -1303665.9    4512718.4 
   18500        4.625    1544.8679    640940.48   -1392008.5    88340.995   -1303667.5    4502362.6 
   18600         4.65     1531.954    642337.08   -1391261.2    87602.529   -1303658.6    4492006.8 
   18700        4.675    1513.6283     644941.9   -1390201.9    86554.602   -1303647.3      4481651 
   18800          4.7    1524.4075    648133.83   -1390813.9    87170.994   -1303642.9    4471295.2 
   18900        4.725    1505.3987    651551.88   -1389725.1    86084.003   -1303641.1    4460939.4 
   19000         4.75    1512.6695    654321.07     -1390136    86499.773   -1303636.2    4450583.7 
   19100        4.775    1525.1303    656228.65   -1390844.3    87212.328     -1303632    4440227.9 
   19200          4.8    1501.2955    658599.95   -1389489.7    85849.369   -1303640.4    4429872.1 
   19300        4.825    1539.6497    660618.12   -1391691.2    88042.595   -1303648.6    4419516.3 
   19400         4.85    1527.6298    663253.61   -1390995.8    87355.256   -1303640.5    4409160.5 
   19500        4.875    1551.2209    665158.22   -1392327.4    88704.279   -1303623.1    4398804.8 
   19600          4.9    1568.4675     665748.1     -1393276    89690.501   -1303585.5      4388449 
   19700        4.925    1578.1523    666072.53   -1393671.6    90244.311   -1303427.3    4378093.2 
   19800         4.95    1615.2468    666243.03   -1395569.5    92365.507     -1303204    4367737.4 
   19900        4.975     1601.799    667855.75   -1394183.6    91596.515     -1302587    4357381.6 
   20000            5    1674.4158    672173.11   -1389157.5    95748.997   -1293408.6    4347025.8 
   20100        5.025    1764.6442    677904.65   -1384331.4    100908.57   -1283422.8    4336670.1 
   20200         5.05    1825.8861    684150.04   -1379584.1     104410.6   -1275173.5    4326314.3 
   20300        5.075    1864.8347     689920.6     -1374809    106637.82   -1268171.2    4315958.5 
   20400          5.1    1894.6894    696598.38   -1369311.4    108345.02   -1260966.3    4305602.7 
   20500        5.125    1947.7099    703134.21   -1364187.1    111376.92   -1252810.2    4295246.9 
   20600         5.15    1997.6607    710741.34   -1358486.2    114233.28   -1244252.9    4284891.2 
   20700        5.175    2030.7231    719072.23   -1352504.7     116123.9   -1236380.8    4274535.4 
   20800          5.2    2021.2915    729687.83   -1344287.2    115584.57   -1228702.6    4264179.6 
   20900        5.225    2042.0442    739210.54   -1336791.7    116771.29   -1220020.4    4253823.8 
   21000         5.25    2048.1244    749227.36   -1328372.3    117118.97   -1211253.4      4243468 
   21100        5.275    2051.4384    759871.54   -1320359.8    117308.48   -1203051.3    4233112.2 
   21200          5.3    2038.2389     770495.2     -1311188    116553.69   -1194634.4    4222756.5 
   21300        5.325    2034.2047    783097.81   -1301659.2       116323   -1185336.2    4212400.7 
   21400         5.35    2031.8766    797643.39   -1291587.4    116189.87   -1175397.5    4202044.9 
   21500        5.375    2029.8928    813289.68   -1280635.6    116076.42   -1164559.2    4191689.1 
   21600          5.4    2034.6756    829758.07   -1268791.4    116349.93   -1152441.4    4181333.3 
   21700        5.425    2042.0942    847358.13   -1256411.3    116774.14   -1139637.2    4170977.6 
   21800         5.45    2046.7822    865854.81   -1243573.2    117042.22   -1126530.9    4160621.8 
   21900        5.475    2061.0159    885256.35   -1230451.4    117856.15   -1112595.2      4150266 
   22000          5.5    2079.5743    904632.49   -1217329.3    118917.39   -1098411.9    4139910.2 
   22100        5.525    2113.6573    923710.98   -1204714.8    120866.37   -1083848.4    4129554.4 
   22200         5.55    2145.4029    942943.21   -1191549.2     122681.7   -1068867.5    4119198.6 
   22300        5.575    2198.6691    961261.12   -1179042.1    125727.65   -1053314.4    4108842.9 
   22400          5.6    2284.4595    976993.36   -1167746.1    130633.45   -1037112.7    4098487.1 
   22500        5.625    2406.6903    989898.75   -1157700.1    137623.04   -1020077.1    4088131.3 
   22600         5.65    2535.6882    1001712.6   -1147382.8    144999.59   -1002383.2    4077775.5 
   22700        5.675    2691.4448    1013984.8   -1137616.7     153906.3    -983710.4    4067419.7 
   22800          5.7    2897.8724    1027640.8     -1130210    165710.56   -964499.49      4057064 
   22900        5.725    3108.6488    1042651.9   -1122957.2     177763.5   -945193.72    4046708.2 
   23000         5.75    3351.8799    1055903.6   -1117309.6    191672.31   -925637.27    4036352.4 
   23100        5.775    3607.3328      1067038   -1112299.3    206280.01   -906019.33    4025996.6 
   23200          5.8     3867.408      1078498   -1107566.6    221152.02   -886414.61    4015640.8 
   23300        5.825    4133.4713    1090702.9   -1103504.4    236366.46   -867137.94      4005285 
   23400         5.85    4396.7548    1102902.6   -1099521.4    251421.94   -848099.51    3994929.3 
   23500        5.875    4679.6792    1113562.5   -1096919.6    267600.55   -829319.04    3984573.5 
   23600          5.9    4934.0165    1122359.5   -1093026.7    282144.45   -810882.26    3974217.7 
   23700        5.925    5203.1798      1131201   -1090330.6    297536.16   -792794.42    3963861.9 
   23800         5.95    5448.3779    1139837.6   -1086808.3    311557.45   -775250.81    3953506.1 
   23900        5.975     5688.282    1148208.2   -1083807.5    325276.01   -758531.49    3943150.4 
   24000            6    5897.1135    1157120.5   -1080096.1    337217.74   -742878.39    3932794.6 
   24100        6.025    6080.4989    1166052.7   -1076152.5    347704.36   -728448.19    3922438.8 
   24200         6.05    6238.4923    1173715.7   -1071909.6    356738.98   -715170.67      3912083 
   24300        6.075    6372.8076    1179992.2   -1067124.3     364419.6   -702704.71    3901727.2 
   24400          6.1    6499.8373    1185872.1   -1062485.2    371683.61   -690801.63    3891371.4 
   24500        6.125    6606.0418    1192760.3   -1056902.4    377756.75   -679145.61    3881015.7 
   24600         6.15    6705.0318    1200984.6   -1050937.4    383417.35   -667520.01    3870659.9 
   24700        6.175    6784.3194    1210184.8   -1043929.2     387951.3   -655977.94    3860304.1 
   24800          6.2    6841.0859      1220472     -1035786     391197.4   -644588.59    3849948.3 
   24900        6.225    6861.7259    1231996.8   -1026175.6    392377.67   -633797.92    3839592.5 
   25000         6.25    6850.0292    1245685.5   -1015262.6    391708.81   -623553.76    3829236.8 
   25100        6.275    6803.8496    1260931.5   -1003050.9    389068.11   -613982.79      3818881 
   25200          6.3    6728.3984    1278261.8   -989920.59    384753.54   -605167.05    3808525.2 
   25300        6.325    6630.9386      1296994   -975692.65    379180.44   -596512.21    3798169.4 
   25400         6.35    6518.3397    1316965.4    -960812.8    372741.64   -588071.16    3787813.6 
   25500        6.375    6392.7896      1337480   -945470.93    365562.24   -579908.69    3777457.8 
   25600          6.4    6262.7429    1357750.5   -930127.96    358125.71   -572002.25    3767102.1 
   25700        6.425    6149.0159    1376590.3   -915933.82     351622.4   -564311.42    3756746.3 
   25800         6.45    6025.5915      1394223   -901419.08    344564.56   -556854.52    3746390.5 
   25900        6.475    5901.9913    1411257.7   -886917.09    337496.66   -549420.42    3736034.7 
   26000          6.5    5801.3112    1428869.9   -873885.83    331739.42   -542146.41    3725678.9 
   26100        6.525    5721.4041    1447630.1   -862177.52    327170.05   -535007.47    3715323.2 
   26200         6.55    5658.9114    1467315.3   -851615.45     323596.5   -528018.94    3704967.4 
   26300        6.575    5619.0928    1484887.6   -842689.13    321319.53    -521369.6    3694611.6 
   26400          6.6    5577.8176    1500431.1   -833963.37    318959.27    -515004.1    3684255.8 
   26500        6.625    5570.1385    1514844.3   -827235.91    318520.15   -508715.76      3673900 
   26600         6.65     5575.464    1527406.1   -821313.44    318824.69   -502488.76    3663544.2 
   26700        6.675    5606.9289    1537238.1   -816961.33    320623.96   -496337.38    3653188.5 
   26800          6.7     5652.936    1543967.4   -813499.24    323254.81   -490244.43    3642832.7 
   26900        6.725    5722.3652    1549436.1   -811398.11    327225.01    -484173.1    3632476.9 
   27000         6.75    5809.9127    1554109.2   -810403.54    332231.28   -478172.26    3622121.1 
   27100        6.775    5916.6341    1558015.6   -810381.87    338333.99   -472047.88    3611765.3 
   27200          6.8    6044.5915      1561062   -811348.15    345651.05    -465697.1    3601409.6 
   27300        6.825    6180.4428      1564638   -812435.58     353419.5   -459016.08    3591053.8 
   27400         6.85    6339.9578    1568516.9   -814065.82    362541.14   -451524.69      3580698 
   27500        6.875    6490.5237    1572116.7   -814271.64    371151.02   -443120.61    3570342.2 
   27600          6.9     6650.779    1577427.8   -813693.71    380314.99   -433378.73    3559986.4 
   27700        6.925    6796.3852    1584879.6   -810875.71    388641.26   -422234.44    3549630.6 
   27800         6.95    6935.5729    1593983.7    -806679.1     396600.5    -410078.6    3539274.9 
   27900        6.975    7061.1019    1605539.4   -800638.52     403778.7   -396859.82    3528919.1 
   28000            7    7175.5512    1618555.8   -792922.99    410323.31   -382599.69    3518563.3 
   28100        7.025    7282.0022    1633895.5   -783988.48    416410.56   -367577.93    3508207.5 
   28200         7.05    7356.2492    1652270.9   -772531.72    420656.26   -351875.47    3497851.7 
   28300        7.075    7417.5305    1674261.9   -759822.94    424160.54    -335662.4      3487496 
   28400          7.1    7467.7314    1698730.9   -745951.36     427031.2   -318920.15    3477140.2 
   28500        7.125    7511.0455    1724589.1   -731070.15    429508.06    -301562.1    3466784.4 
   28600         7.15    7572.0811    1751661.5   -716199.75    432998.29   -283201.46    3456428.6 
   28700        7.175    7631.2866    1780375.1   -700400.81    436383.86   -264016.95    3446072.8 
   28800          7.2    7700.4946    1809406.3   -684625.54    440341.42   -244284.12      3435717 
   28900        7.225    7783.5281      1837313   -669313.59    445089.57   -224224.02    3425361.3 
   29000         7.25    7870.0424    1862364.2   -654146.71    450036.76   -204109.95    3415005.5 
   29100        7.275    7964.5977    1886770.3   -639520.01    455443.77   -184076.24    3404649.7 
   29200          7.3    8052.3953      1910740   -625020.21    460464.35   -164555.87    3394293.9 
   29300        7.325    8144.5001    1934359.5   -610975.61    465731.23   -145244.39    3383938.1 
   29400         7.35    8244.8859    1957288.5   -597640.25    471471.64   -126168.61    3373582.4 
   29500        7.375    8348.3981    1977810.9   -584765.76    477390.83   -107374.93    3363226.6 
   29600          7.4    8452.9403    1994779.1   -572189.21    483368.92   -88820.294    3352870.8 
   29700        7.425    8568.1608    2010413.8   -560371.77    489957.63   -70414.139      3342515 
   29800         7.45     8698.228    2027516.3   -549431.74    497395.34   -52036.408    3332159.2 
   29900        7.475    8831.3871    2046155.5   -538798.56    505009.84   -33788.715    3321803.4 
   30000          7.5    8971.4917    2064801.1   -528564.83    513021.52   -15543.311    3311447.7 
   30100        7.525    9123.4802    2083737.1    -519282.2    521712.76    2430.5614    3301091.9 
   30200         7.55    9285.5578    2104155.3   -510908.32    530980.93    20072.607    3290736.1 
   30300        7.575     9443.275    2125145.2   -502750.45    539999.75    37249.302    3280380.3 
   30400          7.6    9599.2757      2145793    -495154.7    548920.42    53765.714    3270024.5 
   30500        7.625    9734.1863    2165613.8   -486798.07    556635.08     69837.01    3259668.8 
   30600         7.65    9861.2613    2185727.4   -478370.33    563901.68    85531.349      3249313 
   30700        7.675    9927.1605    2206319.8   -467024.44    567670.03    100645.59    3238957.2 
   30800          7.7    9932.9943    2227676.9   -452879.87    568003.63    115123.76    3228601.4 
   30900        7.725    9877.1991    2250961.4   -435896.02    564813.06    128917.04    3218245.6 
   31000         7.75    9773.6282    2276792.4   -416776.62    558890.51    142113.89    3207889.8 
   31100        7.775     9619.322    2303879.8   -395490.61    550066.74    154576.13    3197534.1 
   31200          7.8     9432.317    2331846.6   -373252.24    539373.13    166120.89    3187178.3 
   31300        7.825    9225.7957    2359599.6   -350553.78    527563.52    177009.74    3176822.5 
   31400         7.85    9009.2111    2385651.1   -328052.67    515178.44    187125.78    3166466.7 
   31500        7.875    8802.1601      2411978   -306611.78    503338.54    196726.76    3156110.9 
   31600          7.9    8589.1132    2437974.9   -285271.64    491155.77    205884.13    3145755.1 
   31700        7.925    8377.8269    2465314.5   -264574.81    479073.67    214498.86    3135399.4 
   31800         7.95    8171.2899    2494502.9   -244375.06    467263.16    222888.09    3125043.6 
   31900        7.975    7964.2525    2524298.1   -224667.99    455424.03    230756.04    3114687.8 
   32000            8    7765.3118    2554421.1   -205834.61     444047.9    238213.29      3104332 
   32100        8.025    7577.3777      2583321   -188062.62    433301.17    245238.54    3093976.2 
   32200         8.05    7402.0555    2611088.5   -171310.71    423275.62    251964.91    3083620.5 
   32300        8.075    7221.8808    2638879.4   -154578.96     412972.6    258393.64    3073264.7 
   32400          8.1    7036.5221    2667140.3   -137911.29    402373.14    264461.84    3062908.9 
   32500        8.125    6856.1346      2695585   -121755.47    392057.94    270302.47    3052553.1 
   32600         8.15    6685.2173    2723658.8   -106429.66    382284.29    275854.63    3042197.3 
   32700        8.175    6503.0916    2751772.2   -90483.024     371869.7    281386.68    3031841.5 
   32800          8.2    6320.3909    2778935.9   -74880.436    361422.23    286541.79    3021485.8 
   32900        8.225    6114.7937    2806213.7   -58283.851    349665.46    291381.61      3011130 
   33000         8.25    5888.9902    2834386.6   -40607.907    336753.22    296145.31    3000774.2 
   33100        8.275     5651.424    2862542.8   -22378.314    323168.35    300790.03    2990418.4 
   33200          8.3    5386.9283    2888888.8   -2784.5469    308043.55       305259    2980062.6 
   33300        8.325    5119.9623    2915148.1    16896.943    292777.49    309674.44    2969706.9 
   33400         8.35    4852.1947    2940321.3    36415.379     277465.6    313880.98    2959351.1 
   33500        8.375    4595.2259    2965409.7    55447.095    262771.22    318218.31    2948995.3 
   33600          8.4    4348.0609    2990603.9    74229.584    248637.45    322867.03    2938639.5 
   33700        8.425    4109.7416    3015450.9    93191.954    235009.51    328201.46    2928283.7 
   33800         8.45    3919.6154    3040303.9    111148.51    224137.43    335285.94    2917927.9 
   33900        8.475     3764.002    3065635.6    130151.94     215238.9    345390.84    2907572.2 
   34000          8.5    3710.1801    3090269.1    146056.72    212161.17     358217.9    2897216.4 
   34100        8.525    3679.7311    3113098.1    161230.49    210419.99    371650.48    2886860.6 
   34200         8.55    3685.1616      3134627    174004.25    210730.53    384734.78    2876504.8 
   34300        8.575    3724.0985    3157438.4    184860.51    212957.08    397817.59      2866149 
   34400          8.6    3787.3802    3180371.1    194401.72    216575.75    410977.47    2855793.3 
   34500        8.625    3895.3382    3205338.6     201768.4    222749.17    424517.57    2845437.5 
   34600         8.65    4030.2341    3231551.4    207407.32    230462.99    437870.31    2835081.7 
   34700        8.675    4160.5802    3258986.5    213492.61    237916.64    451409.25    2824725.9 
   34800          8.7    4296.4479    3288444.5    219829.99    245686.04    465516.02    2814370.1 
   34900        8.725    4435.2901    3320416.1    226694.94    253625.52    480320.46    2804014.3 
   35000         8.75    4515.5701    3352234.9    237223.97    258216.21    495440.18    2793658.6 
   35100        8.775    4572.3236      3385630    249832.74    261461.58    511294.32    2783302.8 
   35200          8.8    4592.0108    3420158.3    265132.19    262587.36    527719.55      2772947 
   35300        8.825    4568.8712    3457288.5    283596.88    261264.16    544861.04    2762591.2 
   35400         8.85    4494.2905    3496058.7    305619.08    256999.37    562618.45    2752235.4 
   35500        8.875    4419.3648    3536411.4    328527.07    252714.86    581241.93    2741879.7 
   35600          8.9    4322.0866    3577452.5    353698.22    247152.15    600850.37    2731523.9 
   35700        8.925    4265.9906    3617833.3    377902.88    243944.38    621847.26    2721168.1 
   35800         8.95    4206.8683    3661188.6    404102.27    240563.56    644665.83    2710812.3 
   35900        8.975    4186.0817      3706946    430354.73     239374.9    669729.63    2700456.5 
   36000            9    4187.6839    3755552.8       457797    239466.53    697263.53    2690100.7 
   36100        9.025    4243.2513    3808495.7    484722.26    242644.07    727366.33      2679745 
   36200         9.05    4314.2761    3864461.6    512990.29    246705.52    759695.81    2669389.2 
   36300        9.075    4445.7049    3923958.1    540843.11    254221.08    795064.19    2659033.4 
   36400          9.1    4668.1655    3988294.1    567516.75    266942.16    834458.91    2648677.6 
   36500        9.125    4935.8745    4053541.4    594466.99     282250.7    876717.69    2638321.8 
   36600         9.15    5256.6971    4119877.7    619698.35    300596.47    920294.82    2627966.1 
   36700        9.175    5587.9224    4185094.4    644648.83     319537.1    964185.93    2617610.3 
   36800          9.2    5937.3339      4251431    668862.89    339517.68    1008380.6    2607254.5 
   36900        9.225    6308.3895    4317310.4    692515.83    360735.95    1053251.8    2596898.7 
   37000         9.25      6679.85    4381852.1    716282.94    381977.37    1098260.3    2586542.9 
   37100        9.275    7046.2439    4444307.3    740566.32    402929.06    1143495.4    2576187.1 
   37200          9.3    7393.5851    4507152.6    765930.91    422791.25    1188722.2    2565831.4 
   37300        9.325    7727.4111      4568616     791726.7    441880.61    1233607.3    2555475.6 
   37400         9.35    8017.3568    4629734.6    819510.57    458460.72    1277971.3    2545119.8 
   37500        9.375    8256.9624    4694543.5    849741.55    472162.22    1321903.8      2534764 
   37600          9.4    8461.2094    4764281.2    881898.24    483841.77      1365740    2524408.2 
   37700        9.425    8612.5099    4839330.4    916057.96    492493.67    1408551.6    2514052.5 
   37800         9.45    8713.5626    4923761.7     952449.3    498272.22    1450721.5    2503696.7 
   37900        9.475    8763.9861      5011114    990720.22    501155.62    1491875.8    2493340.9 
   38000          9.5    8758.3481    5103419.7    1031001.6    500833.21    1531834.8    2482985.1 
   38100        9.525    8729.5065    5197220.9      1071324    499183.95    1570507.9    2472629.3 
   38200         9.55    8668.3089      5290578    1112441.2    495684.46    1608125.6    2462273.5 
   38300        9.575      8621.27    5381517.5    1151531.8    492994.61    1644526.4    2451917.8 
   38400          9.6    8579.0486    5469658.5    1189882.5    490580.24    1680462.7      2441562 
   38500        9.625    8568.8127      5553870    1226318.9    489994.91    1716313.8    2431206.2 
   38600         9.65    8578.5625    5633167.4    1261370.1    490552.44    1751922.5    2420850.4 
   38700        9.675    8674.1077    5711448.2    1292341.7    496016.05    1788357.8    2410494.6 
   38800          9.7     8814.026    5788090.2      1321531    504017.07    1825548.1    2400138.9 
   38900        9.725    9021.1659    5864798.5    1348406.9    515862.07      1864269    2389783.1 
   39000         9.75    9287.4865    5940976.2    1372841.5    531091.22    1903932.7    2379427.3 
   39100        9.775     9622.203    6017267.7    1395319.5    550231.48      1945551    2369071.5 
   39200          9.8     10024.44    6093205.8    1416351.9    573232.79    1989584.7    2358715.7 
   39300        9.825    10474.478      6171610    1436626.8    598967.58    2035594.4    2348359.9 
   39400         9.85    10962.283    6249922.8    1456788.2    626861.96    2083650.1    2338004.2 
   39500        9.875    11484.562    6329355.9    1477251.3    656727.72      2133979    2327648.4 
   39600          9.9    12003.953    6412263.6    1498975.2    686428.34    2185403.5    2317292.6 
   39700        9.925    12464.431    6499663.2    1525099.7    712760.09    2237859.8    2306936.8 
   39800         9.95    12899.879    6590752.2    1554253.1    737660.53    2291913.6      2296581 
   39900        9.975    13215.749      6688039    1590296.8    755723.09    2346019.9    2286225.3 
   40000           10    13434.806    6797202.8    1632084.7    768249.59    2400334.3    2275869.5 
   40100       10.025    13550.913    6914416.2    1679770.3    774888.99    2454659.3    2265513.7 
   40200        10.05    13570.366      7042428    1732218.6    776001.34    2508219.9    2255157.9 
   40300       10.075    13508.225    7176671.3    1788963.3     772447.9    2561411.2    2244802.1 
   40400         10.1    13395.416    7312016.4      1847647    765997.09    2613644.1    2234446.3 
   40500       10.125    13260.289    7448071.1    1906862.1    758270.07    2665132.2    2224090.6 
   40600        10.15    13188.689    7580987.6    1961165.4    754175.71    2715341.1    2213734.8 
   40700       10.175    13215.347    7704122.7    2008829.5     755700.1    2764529.6      2203379 
   40800         10.2    13315.337    7815246.5    2050581.4    761417.91    2811999.3    2193023.2 
   40900       10.225     13467.49      7920810      2088279    770118.52    2858397.6    2182667.4 
   41000        10.25    13617.867    8026782.7    2124264.7    778717.66    2902982.4    2172311.7 
   41100       10.275    13669.239    8143052.7    2165235.9    781655.27    2946891.1    2161955.9 
   41200         10.3    13570.157      8272817    2213573.8    775989.42    2989563.2    2151600.1 
   41300       10.325    13251.822    8418812.5    2273976.3    757785.92    3031762.2    2141244.3 
   41400        10.35    12764.747      8575892    2342610.8    729933.22      3072544    2130888.5 
   41500       10.375    12171.894    8740917.5    2417006.3    696031.77      3113038    2120532.7 
   41600         10.4    11514.741    8909476.1    2494143.8    658453.49    3152597.3      2110177 
   41700       10.425    10930.596    9066692.3    2566268.3    625049.99    3191318.3    2099821.2 
   41800        10.45     10463.29    9211037.6    2630568.9    598327.78    3228896.7    2089465.4 
   41900       10.475    10155.567    9341793.3    2685555.2    580731.11    3266286.3    2079109.6 
   42000         10.5    9997.2554    9464430.7    2730921.8     571678.3    3302600.1    2068753.8 
   42100       10.525    9884.1833    9587813.1    2773128.3    565212.44    3338340.7    2058398.1 
   42200        10.55    9720.1908    9724911.2    2817749.5    555834.77    3373584.3    2048042.3 
   42300       10.575    9465.4027    9870383.7      2866802    541265.09    3408067.1    2037686.5 
   42400         10.6    9093.0493     10025031    2922559.6    519972.61    3442532.2    2027330.7 
   42500       10.625    8674.3287     10190382    2980198.8    496028.69    3476227.5    2016974.9 
   42600        10.65    8265.2059     10354916    3037880.8     472633.6    3510514.4    2006619.1 
   42700       10.675    7963.4713     10509593    3090136.3    455379.36    3545515.7    1996263.4 
   42800         10.7    7858.5373     10645915    3135366.1    449378.86      3584745    1985907.6 
   42900       10.725    7952.2491     10776928    3180431.5    454737.63    3635169.1    1975551.8 
   43000        10.75    8226.5847     10939829    3238091.5    470425.11    3708516.6      1965196 
   43100       10.775    8603.8531     11132910    3303567.3    491998.65    3795565.9    1954840.2 
   43200         10.8    8778.6948     11354295    3385694.7    501996.71    3887691.4    1944484.5 
   43300       10.825    9010.9507     11603423    3478147.7    515277.93    3993425.6    1934128.7 
   43400        10.85    9256.9747     11869223    3577888.2    529346.44    4107234.6    1923772.9 
   43500       10.875    9651.5834     12136279    3672453.5    551911.56      4224365    1913417.1 
   43600         10.9     10352.11     12378950    3753927.2    591970.14    4345897.3    1903061.3 
   43700       10.925    11311.888     12593012    3819942.3    646853.62    4466795.9    1892705.5 
   43800        10.95    12422.338     12801593    3875956.3    710353.09    4586309.4    1882349.8 
   43900       10.975    13233.229     13032430    3944974.1    756722.67    4701696.7      1871994 
   44000           11    13568.165     13295019      4034046    775875.52    4809921.5    1861638.2 
   44100       11.025    13399.176     13574137    4143204.6    766212.12    4909416.7    1851282.4 
   44200        11.05    12894.139     13865441    4263150.8    737332.35    5000483.1    1840926.6 
   44300       11.075    12260.076     14146915    4383481.3    701074.39    5084555.7    1830570.9 
   44400         11.1    11877.874     14394809    4484286.6    679218.68    5163505.3    1820215.1 
   44500       11.125    11967.091     14614167    4557586.8    684320.45    5241907.2    1809859.3 
   44600        11.15    12478.024     14821622    4611914.5    713537.42    5325451.9    1799503.5 
   44700       11.175    13185.251     15054923    4666536.2    753979.15    5420515.3    1789147.7 
   44800         11.2    13906.369     15328331    4736444.6    795215.22    5531659.8    1778791.9 
   44900       11.225    14416.403     15634978    4830169.3    824380.75    5654550.1    1768436.2 
   45000        11.25    14806.784     15957189    4938606.6     846704.1    5785310.7    1758080.4 
   45100       11.275    15350.022     16275519    5045180.3    877768.38    5922948.7    1747724.6 
   45200         11.3    16182.221     16579033    5138820.8    925356.42    6064177.2    1737368.8 
   45300       11.325    17030.197     16884344    5230904.9     973846.7    6204751.6      1727013 
   45400        11.35    17806.758     17199206    5323022.3    1018253.2    6341275.5    1716657.3 
   45500       11.375     18167.63     17526947    5429922.1    1038889.1    6468811.2    1706301.5 
   45600         11.4    18012.768     17838063    5556581.3    1030033.6    6586614.9    1695945.7 
   45700       11.425    17530.167     18175568    5691171.6    1002436.8    6693608.4    1685589.9 
   45800        11.45     16969.35     18520761    5821070.8    970367.23      6791438    1675234.1 
   45900       11.475    16495.521     18839761    5937338.9    943272.03      6880611    1664878.3 
   46000         11.5    15966.896     19174708    6051324.7    913043.41    6964368.2    1654522.6 
   46100       11.525    15220.399     19513575    6174969.1    870356.07    7045325.1    1644166.8 
   46200        11.55     14204.69     19835250    6315435.6    812274.25    7127709.8      1633811 
   46300       11.575     13104.63     20150893    6465795.6    749368.93    7215164.5    1623455.2 
   46400         11.6    12223.169     20486363    6612547.4    698963.87    7311511.3    1613099.4 
   46500       11.625    11827.135     20820325    6738685.2    676317.28    7415002.5    1602743.6 
   46600        11.65    12080.118     21180890    6835661.5    690783.75    7526445.2    1592387.9 
   46700       11.675    12602.709     21568899    6922575.8    720667.31    7643243.1    1582032.1 
   46800         11.7    12909.052     21972101    7024817.7    738185.08    7763002.8    1571676.3 
   46900       11.725    12703.341     22392530    7157026.5    726421.82    7883448.3    1561320.5 
   47000        11.75    12249.504     22788059    7308921.3    700469.83    8009391.1    1550964.7 
   47100       11.775    11895.469     23153485    7469890.5    680224.85    8150115.4      1540609 
   47200         11.8    12024.387     23536812    7626241.5    687596.82    8313838.3    1530253.2 
   47300       11.825    12630.909     24014230    7769690.2     722279.9    8491970.1    1519897.4 
   47400        11.85    13324.716     24507389    7913601.4    761954.24    8675555.7    1509541.6 
   47500       11.875    14055.728     24991206    8069107.8    803756.09    8872863.9    1499185.8 
   47600         11.9    14720.928     25452007      8237399    841794.54    9079193.5      1488830 
   47700       11.925     15229.97     25884269    8418416.8    870903.37    9289320.2    1478474.3 
   47800        11.95    15743.784     26360852    8601879.9    900285.06    9502164.9    1468118.5 
   47900       11.975    16087.424     26894637    8787691.8    919935.62    9707627.5    1457762.7 
   48000           12    16266.379     27412532    8971020.8    930168.91    9901189.7    1447406.9 
   48100       12.025    16442.391     27925027    9145123.6    940233.87     10085357    1437051.1 
   48200        12.05     16692.53     28406556    9309340.3    954537.71     10263878    1426695.4 
   48300       12.075      17302.6     28901989    9456482.2    989423.64     10445906    1416339.6 
   48400         12.1    18168.718     29446804    9598478.2    1038951.3     10637429    1405983.8 
   48500       12.125    18978.669     30001035    9755402.5    1085267.2     10840670      1395628 
   48600        12.15     19579.47     30557296    9936577.3    1119623.1     11056200    1385272.2 
   48700       12.175    19986.125     31107443     10144771    1142877.1     11287648    1374916.4 
   48800         12.2    20350.915     31706292     10363050      1163737     11526787    1364560.7 
   48900       12.225    20882.364     32349298     10572144    1194127.2     11766271    1354204.9 
   49000        12.25    21397.981     32982867     10770471      1223612     11994083    1343849.1 
   49100       12.275    21587.275     33570618     10973136    1234436.5     12207573    1333493.3 
   49200         12.3    21194.104     34150004     11193404    1211953.5     12405358    1323137.5 
   49300       12.325    20111.771     34769180     11435237      1150062     12585298    1312781.8 
   49400        12.35    18591.386     35413318     11688456      1063121     12751577      1302426 
   49500       12.375    17057.297     36037896     11933675    975396.39     12909071    1292070.2 
   49600         12.4    15939.167     36629933     12153748    911457.75     13065206    1281714.4 
   49700       12.425    15507.749     37239589     12346052    886787.73     13232839    1271358.6 
   49800        12.45     15546.37     37887095     12534175    888996.22     13423172    1261002.8 
   49900       12.475    15818.878     38590999     12741614    904579.18     13646193    1250647.1 
   50000         12.5    15982.378     39348640     12987612    913928.71     13901540    1240291.3 
Loop time of 528.376 on 24 procs for 50000 steps with 442392 atoms

Performance: 2.044 ns/day, 11.742 hours/ns, 94.630 timesteps/s
99.8% CPU use with 24 MPI tasks x 1 OpenMP threads

MPI task timing breakdown:
Section |  min time  |  avg time  |  max time  |%varavg| %total
---------------------------------------------------------------
Pair    | 241.63     | 261.62     | 280.85     |  61.2 | 49.51
Neigh   | 0.15529    | 0.18076    | 0.20337    |   3.0 |  0.03
Comm    | 56.847     | 59.97      | 64.404     |  29.5 | 11.35
Output  | 14.753     | 14.754     | 14.77      |   0.1 |  2.79
Modify  | 152.75     | 169.27     | 185.25     |  67.1 | 32.04
Other   |            | 22.59      |            |       |  4.27

Nlocal:        18433.0 ave       19140 max       17770 min
Histogram: 6 2 0 0 3 2 5 2 0 4
Nghost:        56893.2 ave       58690 max       55565 min
Histogram: 4 4 0 8 0 0 0 4 0 4
Neighs:         0.00000 ave           0 max           0 min
Histogram: 24 0 0 0 0 0 0 0 0 0

Total # of neighbors = 0
Ave neighs/atom = 0.0000000
Neighbor list builds = 964
Dangerous builds = 0


---------------------------------------------------------------------
      Device Time Info (average): 
---------------------------------------------------------------------
Data Transfer:   35.8442 s.
Neighbor copy:   0.0510 s.
Neighbor build:  5.8759 s.
Force calc:      155.9777 s.
Device Overhead: 65.8292 s.
Average split:   1.0000.
Lanes / atom:    4.
Vector width:    32.
Max Mem / Proc:  174.30 MB.
CPU Neighbor:    0.8599 s.
CPU Cast/Pack:   23.5684 s.
CPU Driver_Time: 0.9114 s.
CPU Idle_Time:   75.1970 s.
---------------------------------------------------------------------

Total wall time: 0:08:57
