LAMMPS (24 Mar 2022)
OMP_NUM_THREADS environment is not set. Defaulting to 1 thread. (src/comm.cpp:98)
  using 1 OpenMP thread(s) per MPI task

# System init

units      metal
dimension  3
boundary   p p p
atom_style atomic
timestep   0.00025


# read data
read_data full_slab.data
Reading data file ...
  orthogonal box = (0 0 0) to (101.21739 101.21739 558.984)
  1 by 1 by 6 MPI processor grid
  reading atoms ...
  442802 atoms
  read_data CPU = 0.901 seconds

# pair potential
pair_style eam/alloy
pair_coeff * * Mishin-Ni-Al-2009.eam.alloy Ni Al




# reporting
thermo_style custom step time temp pe epair etotal press vol lx ly lz spcpu cpuremain elapsed
thermo 100

dump   1 all atom 100 generic.lammpstrj

# Single point
min_style cg
minimize 1e-5 1e-5 10000 100000
WARNING: Using 'neigh_modify every 1 delay 0 check yes' setting during minimization (src/min.cpp:187)
Neighbor list info ...
  update every 1 steps, delay 0 steps, check yes
  max neighbors/atom: 2000, page size: 100000
  master list distance cutoff = 8.28721
  ghost atom cutoff = 8.28721
  binsize = 4.143605, bins = 25 25 135
  1 neighbor lists, perpetual/occasional/extra = 1 0 0
  (1) pair eam/alloy, perpetual
      attributes: half, newton on
      pair build: half/bin/atomonly/newton
      stencil: half/bin/3d
      bin: standard
Per MPI rank memory allocation (min/avg/max) = 62.1 | 66.3 | 68.2 Mbytes
   Step          Time           Temp          PotEng         E_pair         TotEng         Press          Volume           Lx             Ly             Lz           S/CPU         CPULeft       Elapsed  
         0   0              0             -1198810.4     -1198810.4     -1198810.4      379720.89      5726768.3      101.21739      101.21739      558.984        0              0                      0 
       100   0.025          0             -1451400.9     -1451400.9     -1451400.9      232035.92      5726768.3      101.21739      101.21739      558.984        3.8791225      2552.1236            100 
       200   0.05           0             -1488288.7     -1488288.7     -1488288.7      208611.69      5726768.3      101.21739      101.21739      558.984        3.2733056      2760.13              200 
       300   0.075          0             -1497275.6     -1497275.6     -1497275.6      204218.22      5726768.3      101.21739      101.21739      558.984        3.3409316      2789.1042            300 
       400   0.1            0             -1504247.1     -1504247.1     -1504247.1      202068.58      5726768.3      101.21739      101.21739      558.984        3.2044148      2819.2296            400 
       500   0.125          0             -1509636       -1509636       -1509636        200026.48      5726768.3      101.21739      101.21739      558.984        3.1992348      2825.7821            500 
       600   0.15           0             -1514301.5     -1514301.5     -1514301.5      198009.24      5726768.3      101.21739      101.21739      558.984        3.1872786      2821.5683            600 
       700   0.175          0             -1517840.9     -1517840.9     -1517840.9      196120.26      5726768.3      101.21739      101.21739      558.984        3.1969948      2808.3274            700 
       800   0.2            0             -1520913.8     -1520913.8     -1520913.8      194519.47      5726768.3      101.21739      101.21739      558.984        3.1962878      2790.6564            800 
       900   0.225          0             -1523636.9     -1523636.9     -1523636.9      193435.64      5726768.3      101.21739      101.21739      558.984        3.1786269      2771.7174            900 
      1000   0.25           0             -1525949.1     -1525949.1     -1525949.1      192669.13      5726768.3      101.21739      101.21739      558.984        3.1935989      2748.9468           1000 
      1100   0.275          0             -1527957.2     -1527957.2     -1527957.2      191997.39      5726768.3      101.21739      101.21739      558.984        3.2039797      2723.8023           1100 
      1156   0.289          0             -1529050.4     -1529050.4     -1529050.4      191578.76      5726768.3      101.21739      101.21739      558.984        3.1594692      2711.1467           1156 
Loop time of 354.374 on 6 procs for 1156 steps with 442802 atoms

99.9% CPU use with 6 MPI tasks x 1 OpenMP threads

Minimization stats:
  Stopping criterion = energy tolerance
  Energy initial, next-to-last, final = 
     -1198810.35928313   -1529035.1055391  -1529050.35845875
  Force two-norm initial, final = 514.37393 15.353862
  Force max component initial, final = 4.3446607 1.423042
  Final line search alpha, max atom move = 0.05956645 0.084765561
  Iterations, force evaluations = 1156 1161

MPI task timing breakdown:
Section |  min time  |  avg time  |  max time  |%varavg| %total
---------------------------------------------------------------
Pair    | 289.55     | 308.55     | 330.94     |  93.3 | 87.07
Neigh   | 9.0531     | 10.35      | 11.416     |  26.6 |  2.92
Comm    | 1.5276     | 25.458     | 45.91      | 349.8 |  7.18
Output  | 0.68436    | 0.68441    | 0.68459    |   0.0 |  0.19
Modify  | 0          | 0          | 0          |   0.0 |  0.00
Other   |            | 9.334      |            |       |  2.63

Nlocal:        73800.3 ave       79146 max       68882 min
Histogram: 2 0 0 0 2 0 0 0 0 2
Nghost:        45400.2 ave       48707 max       39040 min
Histogram: 2 0 0 0 0 0 0 0 0 4
Neighs:    6.81501e+06 ave 7.68318e+06 max 5.92268e+06 min
Histogram: 1 1 0 0 2 0 0 0 0 2

Total # of neighbors = 40890084
Ave neighs/atom = 92.343946
Neighbor list builds = 65
Dangerous builds = 0

# Thermalisation

velocity all create 300 1 mom yes rot no

fix 1 all npt temp 300 300 $(100.0*dt) iso 1.0 1.0 $(1000*dt)
fix 1 all npt temp 300 300 0.025000000000000001388 iso 1.0 1.0 $(1000*dt)
fix 1 all npt temp 300 300 0.025000000000000001388 iso 1.0 1.0 0.25

run  5000
Per MPI rank memory allocation (min/avg/max) = 54.94 | 58.64 | 60.7 Mbytes
   Step          Time           Temp          PotEng         E_pair         TotEng         Press          Volume           Lx             Ly             Lz           S/CPU         CPULeft       Elapsed  
      1156   0              300           -1529050.4     -1529050.4     -1511879.4      194781.37      5726768.3      101.21739      101.21739      558.984        0              0                      0 
      1200   0.011          211.30315     -1539451.3     -1539451.3     -1527357        159266.46      5868258        102.0442       102.0442       563.55016      3.5961065      1378.1573             44 
      1300   0.036          108.10862     -1553453.3     -1553453.3     -1547265.6      108316.05      6112705.9      103.44188      103.44188      571.26902      3.738385       1314.66              144 
      1400   0.061          140.17889     -1565359.8     -1565359.8     -1557336.4      73364.414      6305639.3      104.51893      104.51893      577.21714      3.8332373      1268.382             244 
      1500   0.086          168.75741     -1572007.9     -1572007.9     -1562348.8      49667.982      6461954.9      105.37556      105.37556      581.94796      3.9193437      1226.0853            344 
      1600   0.111          187.39858     -1575271.1     -1575271.1     -1564545        33605.962      6588586.7      106.05944      106.05944      585.72478      3.9998069      1186.0814            444 
      1700   0.136          207.95676     -1577008       -1577008       -1565105.3      22396.443      6689876.1      106.60018      106.60018      588.71106      4.0800474      1147.5657            544 
      1800   0.161          234.73586     -1578218.4     -1578218.4     -1564783        14748.105      6770362.9      107.02598      107.02598      591.06261      4.1005458      1112.571             644 
      1900   0.186          259.87236     -1578882.5     -1578882.5     -1564008.3      9635.7863      6833047.3      107.35527      107.35527      592.88116      4.1437065      1078.9748            744 
      2000   0.211          279.28936     -1579079.7     -1579079.7     -1563094.1      6355.3115      6881946.4      107.61075      107.61075      594.29207      4.1280104      1048.0728            844 
      2100   0.236          298.50998     -1579374.2     -1579374.2     -1562288.5      4154.3518      6919759.8      107.80749      107.80749      595.37854      4.1759564      1017.3906            944 
      2200   0.261          306.12915     -1579411.3     -1579411.3     -1561889.6      2730.0796      6948757.5      107.95787      107.95787      596.20904      4.1502621      988.5604            1044 
      2300   0.286          306.29733     -1579689.4     -1579689.4     -1562158        1685.667       6970576.6      108.07075      108.07075      596.83242      4.1172713      961.20884           1144 
      2400   0.311          302.13096     -1580102       -1580102       -1562809.1      973.48765      6985780        108.14926      108.14926      597.26602      4.0648669      935.29524           1244 
      2500   0.336          300.44208     -1580547.8     -1580547.8     -1563351.5      598.85868      6996105.8      108.20252      108.20252      597.56015      4.0534799      909.76494           1344 
      2600   0.361          299.04166     -1580869.6     -1580869.6     -1563753.5      416.31575      7003643.3      108.24136      108.24136      597.77468      3.7297203      889.62745           1444 
      2700   0.386          299.79156     -1581163.6     -1581163.6     -1564004.6      303.90813      7009645.9      108.27228      108.27228      597.94541      3.9448463      865.35268           1544 
      2800   0.411          301.04104     -1581448.5     -1581448.5     -1564218        218.71587      7014428.2      108.29689      108.29689      598.08136      4.1007699      838.97956           1644 
      2900   0.436          301.33505     -1581761.2     -1581761.2     -1564513.8      151.77517      7018171.6      108.31616      108.31616      598.18773      4.1025579      812.81452           1744 
      3000   0.461          300.57237     -1582086.1     -1582086.1     -1564882.4      117.58976      7021012.4      108.33077      108.33077      598.26843      4.0943491      786.92726           1844 
      3100   0.486          300.50042     -1582441.3     -1582441.3     -1565241.7      91.435086      7023385        108.34297      108.34297      598.33581      4.1094156      761.04978           1944 
      3200   0.511          299.4903      -1582713.1     -1582713.1     -1565571.3      78.666168      7025396.9      108.35331      108.35331      598.39294      4.1098522      735.31956           2044 
      3300   0.536          299.04516     -1582923.4     -1582923.4     -1565807.1      65.142604      7027161.2      108.36238      108.36238      598.44303      4.333855       708.04451           2144 
      3400   0.561          298.91575     -1583031.6     -1583031.6     -1565922.7      74.688525      7028876        108.3712       108.3712       598.4917       4.336631       681.12573           2244 
      3500   0.586          299.32126     -1583054.1     -1583054.1     -1565922        67.496118      7030771.3      108.38094      108.38094      598.54549      4.2500035      655.06884           2344 
      3600   0.611          299.76531     -1583000.6     -1583000.6     -1565843        64.800319      7032606.6      108.39037      108.39037      598.59757      4.2879804      629.00083           2444 
      3700   0.636          299.97226     -1582905.5     -1582905.5     -1565736.2      80.046592      7034537.4      108.40029      108.40029      598.65234      4.2730199      603.22762           2544 
      3800   0.661          299.66985     -1582776.4     -1582776.4     -1565624.3      88.721675      7036917.8      108.41251      108.41251      598.71986      4.2999827      577.50295           2644 
      3900   0.686          299.70205     -1582634.2     -1582634.2     -1565480.3      84.683174      7039535.6      108.42595      108.42595      598.7941       4.2778366      552.05721           2744 
      4000   0.711          300.20295     -1582496.8     -1582496.8     -1565314.2      93.670356      7042253.5      108.43991      108.43991      598.87115      4.2616257      526.82441           2844 
      4100   0.736          300.13514     -1582351.4     -1582351.4     -1565172.7      95.734664      7045227.9      108.45517      108.45517      598.95545      4.2831786      501.62923           2944 
      4200   0.761          300.37247     -1582245.1     -1582245.1     -1565052.8      88.271354      7048310.2      108.47098      108.47098      599.04279      4.3852792      476.20618           3044 
      4300   0.786          300.41517     -1582169.9     -1582169.9     -1564975.2      72.490726      7051182.8      108.48572      108.48572      599.12416      4.330189       451.12102           3144 
      4400   0.811          300.57301     -1582150.7     -1582150.7     -1564947        45.659151      7053550        108.49786      108.49786      599.1912       4.3238741      426.17691           3244 
      4500   0.836          301.02453     -1582218.1     -1582218.1     -1564988.5      35.783009      7055164.2      108.50613      108.50613      599.2369       4.2657821      401.49741           3344 
      4600   0.861          300.35301     -1582322.9     -1582322.9     -1565131.7      15.324589      7056335.1      108.51214      108.51214      599.27005      4.2800406      376.85448           3444 
      4700   0.886          300.27694     -1582502.7     -1582502.7     -1565315.9      0.2497257      7056814.8      108.51459      108.51459      599.28363      4.2830162      352.27703           3544 
      4800   0.911          300.42646     -1582714.5     -1582714.5     -1565519.1     -5.6521295      7056876.1      108.51491      108.51491      599.28536      4.262885       327.80809           3644 
      4900   0.936          300.44053     -1582949.5     -1582949.5     -1565753.4     -26.467567      7056465.5      108.5128       108.5128       599.27374      4.3085972      303.30965           3744 
      5000   0.961          300.29277     -1583197.7     -1583197.7     -1566010       -34.049627      7055443.1      108.50756      108.50756      599.2448       4.2754023      278.93247           3844 
      5100   0.986          299.65006     -1583412.4     -1583412.4     -1566261.5     -31.942294      7054086.2      108.50061      108.50061      599.20638      4.2896062      254.58462           3944 
      5200   1.011          299.6849      -1583615.8     -1583615.8     -1566462.9     -38.873135      7052590.2      108.49294      108.49294      599.16402      4.2440414      230.34717           4044 
      5300   1.036          299.03226     -1583720.2     -1583720.2     -1566604.7     -22.200232      7051131        108.48545      108.48545      599.12269      4.3446026      206.02964           4144 
      5400   1.061          299.78069     -1583812.2     -1583812.2     -1566653.8     -33.939689      7049880.5      108.47904      108.47904      599.08727      4.4150605      181.70796           4244 
      5500   1.086          300.42924     -1583866.9     -1583866.9     -1566671.4     -45.031289      7048384.1      108.47136      108.47136      599.04488      4.3888801      157.48366           4344 
      5600   1.111          300.62934     -1583944.6     -1583944.6     -1566737.6     -46.344579      7046401.9      108.46119      108.46119      598.98872      4.3793058      133.33037           4444 
      5700   1.136          299.97588     -1584031.4     -1584031.4     -1566861.8     -72.961088      7044116.4      108.44947      108.44947      598.92395      4.3823461      109.23354           4544 
      5800   1.161          300.3515      -1584184.8     -1584184.8     -1566993.8     -63.360524      7041035.3      108.43365      108.43365      598.83662      4.3409528      85.208418           4644 
      5900   1.186          300.05598     -1584324       -1584324       -1567149.8     -78.235305      7037946.5      108.41779      108.41779      598.74904      4.300647       61.236632           4744 
      6000   1.211          300.28694     -1584501.9     -1584501.9     -1567314.5     -79.537756      7034379.6      108.39948      108.39948      598.64787      4.3161821      37.291857           4844 
      6100   1.236          299.91839     -1584661.7     -1584661.7     -1567495.4     -79.413272      7030675.6      108.38045      108.38045      598.54278      4.2921983      13.379946           4944 
      6156   1.25           299.3497      -1584723.5     -1584723.5     -1567589.7     -71.490931      7028633.9      108.36995      108.36995      598.48483      4.2917885      0                   5000 
Loop time of 1194.31 on 6 procs for 5000 steps with 442802 atoms

Performance: 0.090 ns/day, 265.401 hours/ns, 4.187 timesteps/s
99.8% CPU use with 6 MPI tasks x 1 OpenMP threads

MPI task timing breakdown:
Section |  min time  |  avg time  |  max time  |%varavg| %total
---------------------------------------------------------------
Pair    | 983.57     | 1057       | 1135.7     | 179.0 | 88.51
Neigh   | 7.4119     | 8.5601     | 9.5496     |  26.2 |  0.72
Comm    | 6.098      | 88.55      | 165        | 652.6 |  7.41
Output  | 2.7265     | 2.9394     | 3.1413     |   8.3 |  0.25
Modify  | 29.394     | 31.849     | 36.766     |  55.9 |  2.67
Other   |            | 5.364      |            |       |  0.45

Nlocal:        73800.3 ave       78765 max       69262 min
Histogram: 2 0 0 0 2 0 0 0 0 2
Nghost:        42857.7 ave       46991 max       35585 min
Histogram: 2 0 0 0 0 0 0 0 0 4
Neighs:    5.75669e+06 ave 6.41992e+06 max 5.02855e+06 min
Histogram: 1 0 1 0 2 0 0 0 0 2

Total # of neighbors = 34540138
Ave neighs/atom = 78.003573
Neighbor list builds = 58
Dangerous builds = 3

write_restart equil.init
System init for write_restart ...
write_data    equil.data
System init for write_data ...
Total wall time: 0:25:51
