LAMMPS (29 Sep 2021)
  using 1 OpenMP thread(s) per MPI task
Reading data file ...
  orthogonal box = (-0.27404403 -0.27193217 0.0000000) to (101.49143 101.48932 619.76800)
  2 by 1 by 12 MPI processor grid
  reading atoms ...
  442392 atoms
  reading velocities ...
  442392 velocities
  read_data CPU = 5.577 seconds
221191 atoms in group g_left
221201 atoms in group g_right

CITE-CITE-CITE-CITE-CITE-CITE-CITE-CITE-CITE-CITE-CITE-CITE-CITE

Your simulation uses code contributions which should be cited:
- GPU package (short-range, long-range and three-body potentials):
The log file lists these citations in BibTeX format.

CITE-CITE-CITE-CITE-CITE-CITE-CITE-CITE-CITE-CITE-CITE-CITE-CITE


--------------------------------------------------------------------------
- Using acceleration for eam/alloy:
-  with 12 proc(s) per device.
-  Horizontal vector operations: ENABLED
-  Shared memory system: No
--------------------------------------------------------------------------
Device 0: Tesla V100-SXM2-32GB, 80 CUs, 28/32 GB, 1.5 GHZ (Mixed Precision)
Device 1: Tesla V100-SXM2-32GB, 80 CUs, 1.5 GHZ (Mixed Precision)
--------------------------------------------------------------------------

Initializing Device and compiling on process 0...Done.
Initializing Devices 0-1 on core 0...Done.
Initializing Devices 0-1 on core 1...Done.
Initializing Devices 0-1 on core 2...Done.
Initializing Devices 0-1 on core 3...Done.
Initializing Devices 0-1 on core 4...Done.
Initializing Devices 0-1 on core 5...Done.
Initializing Devices 0-1 on core 6...Done.
Initializing Devices 0-1 on core 7...Done.
Initializing Devices 0-1 on core 8...Done.
Initializing Devices 0-1 on core 9...Done.
Initializing Devices 0-1 on core 10...Done.
Initializing Devices 0-1 on core 11...Done.

Setting up Verlet run ...
  Unit style    : metal
  Current step  : 0
  Time step     : 0.00025
Per MPI rank memory allocation (min/avg/max) = 8.756 | 11.14 | 11.72 Mbytes
Step Time Temp Press PotEng KinEng TotEng Volume 
       0            0    2020.2002     16388.39   -1714223.8    115522.17   -1598701.7    6418182.2 
     100        0.025    2020.3193    16399.491   -1714242.7    115528.98   -1598713.7    6413004.3 
     200         0.05    2019.6285    16424.001     -1714213    115489.48   -1598723.5    6407826.4 
     300        0.075    2019.7459    16432.971   -1714219.4    115496.19   -1598723.2    6402648.6 
     400          0.1    2020.0546    16453.152   -1714230.4    115513.84   -1598716.6    6397470.7 
     500        0.125    2020.1447    16474.291   -1714234.4       115519   -1598715.4    6392292.8 
     600         0.15    2020.2992    16478.406     -1714249    115527.83   -1598721.2    6387114.9 
     700        0.175    2019.8732    16489.777   -1714228.5    115503.47     -1598725      6381937 
     800          0.2    2019.2186    16498.143   -1714188.1    115466.04     -1598722    6376759.1 
     900        0.225    2019.8013    16495.301   -1714216.6    115499.36   -1598717.3    6371581.2 
    1000         0.25    2020.0126    16488.457   -1714232.5    115511.44     -1598721    6366403.3 
    1100        0.275    2020.4778    16490.032   -1714265.6    115538.04   -1598727.6    6361225.4 
    1200          0.3    2019.8027    16514.318   -1714228.1    115499.44   -1598728.6    6356047.5 
    1300        0.325    2019.7911      16524.9   -1714223.2    115498.77   -1598724.5    6350869.6 
    1400         0.35    2019.6692    16535.228   -1714212.7     115491.8   -1598720.9    6345691.7 
    1500        0.375    2020.1702    16552.306   -1714240.5    115520.45     -1598720    6340513.9 
    1600          0.4    2019.7323     16577.39   -1714215.9    115495.41   -1598720.5      6335336 
    1700        0.425     2019.711      16576.6   -1714211.8    115494.19   -1598717.6    6330158.1 
    1800         0.45    2020.4016    16548.576   -1714247.1    115533.69   -1598713.4    6324980.2 
    1900        0.475    2020.3467    16553.135   -1714242.2    115530.55   -1598711.6    6319802.3 
    2000          0.5    2020.1128    16586.927     -1714228    115517.17   -1598710.9    6314624.4 
    2100        0.525    2019.8685    16621.034   -1714213.9     115503.2   -1598710.7    6309446.5 
    2200         0.55    2020.0773    16643.937   -1714222.9    115515.14   -1598707.7    6304268.6 
    2300        0.575      2020.77    16651.949   -1714259.6    115554.75   -1598704.9    6299090.7 
    2400          0.6    2020.3147    16673.196   -1714237.1    115528.71   -1598708.3    6293912.8 
    2500        0.625    2019.5929    16697.606   -1714201.4    115487.44     -1598714    6288734.9 
    2600         0.65    2019.7293    16705.269   -1714213.7    115495.24   -1598718.4    6283557.1 
    2700        0.675    2020.0435    16725.211   -1714230.2    115513.21   -1598716.9    6278379.2 
    2800          0.7    2020.4002    16731.343   -1714245.3     115533.6   -1598711.7    6273201.3 
    2900        0.725    2019.7801        16754     -1714211    115498.15   -1598712.8    6268023.4 
    3000         0.75    2019.9272    16777.928   -1714226.8    115506.56   -1598720.3    6262845.5 
    3100        0.775     2020.049    16802.008   -1714239.1    115513.52   -1598725.6    6257667.6 
    3200          0.8    2019.6441    16833.826   -1714213.6    115490.37   -1598723.3    6252489.7 
    3300        0.825    2019.7528    16848.401   -1714213.7    115496.58   -1598717.1    6247311.8 
    3400         0.85    2020.1993    16857.333   -1714234.1    115522.12     -1598712    6242133.9 
    3500        0.875    2020.2628    16859.619   -1714233.6    115525.75   -1598707.9      6236956 
    3600          0.9    2020.4788    16870.335   -1714240.7     115538.1   -1598702.6    6231778.1 
    3700        0.925    2020.0653    16884.128   -1714212.3    115514.45   -1598697.8    6226600.3 
    3800         0.95    2020.1809    16888.062   -1714220.3    115521.06   -1598699.2    6221422.4 
    3900        0.975    2020.3737    16896.544   -1714240.5    115532.09   -1598708.4    6216244.5 
    4000            1    2020.0413     16929.85   -1714232.9    115513.08   -1598719.8    6211066.6 
    4100        1.025    2020.0584    16956.843   -1714239.5    115514.06   -1598725.4    6205888.7 
    4200         1.05    2019.3461    16992.766   -1714199.7    115473.33   -1598726.4    6200710.8 
    4300        1.075     2019.538    17012.499   -1714209.6     115484.3   -1598725.3    6195532.9 
    4400          1.1    2020.4288    16999.429   -1714260.2    115535.24     -1598725      6190355 
    4500        1.125    2020.3757     16978.91   -1714258.1     115532.2   -1598725.9    6185177.1 
    4600         1.15     2022.791    16865.196   -1714395.1    115670.32   -1598724.7    6179999.2 
    4700        1.175    2026.7496    16724.521   -1714619.5    115896.69   -1598722.8    6174821.3 
    4800          1.2    2030.5911      16593.4   -1714839.2    116116.36   -1598722.8    6169643.5 
    4900        1.225    2027.6589    16936.198   -1714672.7    115948.68     -1598724    6164465.6 
    5000         1.25    2023.4004    17973.121   -1714432.7    115705.17   -1598727.6    6159287.7 
    5100        1.275    2019.1492    18936.269   -1714198.9    115462.07   -1598736.8    6154109.8 
    5200          1.3    2013.1339    19613.118   -1713866.8    115118.09   -1598748.8    6148931.9 
    5300        1.325     2011.297    20296.002   -1713763.7    115013.05   -1598750.7      6143754 
    5400         1.35    2007.2974    21024.807   -1713526.4    114784.34   -1598742.1    6138576.1 
    5500        1.375    2003.4681    21708.044   -1713296.6    114565.37   -1598731.3    6133398.2 
    5600          1.4    2000.9119    22404.062   -1713150.1    114419.19   -1598730.9    6128220.3 
    5700        1.425     1994.245    23203.464   -1712771.9    114037.96   -1598733.9    6123042.4 
    5800         1.45    1992.0373    23897.935   -1712641.2    113911.71   -1598729.5    6117864.5 
    5900        1.475    1986.7455    24665.118   -1712332.9    113609.11   -1598723.8    6112686.7 
    6000          1.5    1980.9874     25410.88   -1712003.5    113279.84   -1598723.6    6107508.8 
    6100        1.525    1976.2752     26144.13   -1711737.3    113010.38   -1598726.9    6102330.9 
    6200         1.55    1971.1357    26867.467   -1711442.3    112716.49   -1598725.8      6097153 
    6300        1.575    1966.2679    27591.466   -1711161.2    112438.13   -1598723.1    6091975.1 
    6400          1.6    1962.6508    28309.288   -1710954.3    112231.29     -1598723    6086797.2 
    6500        1.625     1957.803     29055.48   -1710678.9    111954.07   -1598724.8    6081619.3 
    6600         1.65     1953.342    29871.675   -1710424.9    111698.98     -1598726    6076441.4 
    6700        1.675    1947.1894    30939.692   -1710073.9    111347.15   -1598726.8    6071263.5 
    6800          1.7    1939.8167    32248.397   -1709653.4    110925.55   -1598727.9    6066085.6 
    6900        1.725    1933.4294    33520.705   -1709286.8    110560.31   -1598726.5    6060907.7 
    7000         1.75    1924.5988    34769.327   -1708775.3    110055.34   -1598719.9    6055729.9 
    7100        1.775     1917.168    36049.497   -1708343.8    109630.42   -1598713.4      6050552 
    7200          1.8    1908.9439    37361.496   -1707873.8    109160.14   -1598713.7    6045374.1 
    7300        1.825    1900.1237    38630.883   -1707376.1    108655.77   -1598720.3    6040196.2 
    7400         1.85    1891.1619    39874.133   -1706871.1     108143.3   -1598727.7    6035018.3 
    7500        1.875    1882.6929    41099.913   -1706386.3    107659.02   -1598727.2    6029840.4 
    7600          1.9    1874.9865    42273.489   -1705938.9    107218.33   -1598720.6    6024662.5 
    7700        1.925    1866.4081    43473.803   -1705449.9    106727.79   -1598722.1    6019484.6 
    7800         1.95    1857.1159    44711.513     -1704927    106196.44   -1598730.5    6014306.7 
    7900        1.975    1848.2683    45908.185   -1704424.8     105690.5   -1598734.3    6009128.8 
    8000            2    1839.9489    47120.932   -1703942.4    105214.76   -1598727.7    6003950.9 
    8100        2.025    1832.4517    48305.895   -1703506.6    104786.05   -1598720.5    5998773.1 
    8200         2.05    1823.6711    49487.967   -1703006.9    104283.94     -1598723    5993595.2 
    8300        2.075    1815.4943    50637.529   -1702546.4    103816.37   -1598730.1    5988417.3 
    8400          2.1     1805.268    51886.373   -1701964.3    103231.59   -1598732.7    5983239.4 
    8500        2.125    1796.3235    53154.332     -1701450    102720.11   -1598729.9    5978061.5 
    8600         2.15    1786.3979     54426.52   -1700885.1    102152.53   -1598732.6    5972883.6 
    8700        2.175    1775.7661    55727.577   -1700280.3    101544.57   -1598735.7    5967705.7 
    8800          2.2     1765.825    56986.736   -1699713.7     100976.1   -1598737.6    5962527.8 
    8900        2.225    1755.5342    58258.172   -1699125.6    100387.63   -1598737.9    5957349.9 
    9000         2.25     1745.294    59516.849     -1698540    99802.065   -1598737.9      5952172 
    9100        2.275    1734.8314    60775.494   -1697941.6    99203.774   -1598737.8    5946994.1 
    9200          2.3    1724.3619    62009.754   -1697342.6    98605.093   -1598737.5    5941816.3 
    9300        2.325    1712.9527    63234.263   -1696688.8    97952.676   -1598736.1    5936638.4 
    9400         2.35    1703.0888    64402.758   -1696119.3    97388.623   -1598730.7    5931460.5 
    9500        2.375    1692.7352    65560.097   -1695519.6    96796.568     -1598723    5926282.6 
    9600          2.4    1684.5466    66591.874   -1695047.2    96328.314   -1598718.9    5921104.7 
    9700        2.425      1675.53    67487.936   -1694530.8    95812.713   -1598718.1    5915926.8 
    9800         2.45    1668.2034    68168.543   -1694115.3     95393.75   -1598721.6    5910748.9 
    9900        2.475    1661.3404     68719.17   -1693723.6    95001.299   -1598722.3      5905571 
   10000          2.5    1652.4283    69324.369   -1693209.1    94491.675   -1598717.4    5900393.1 
   10100        2.525    1644.3736    70004.038   -1692747.3    94031.079   -1598716.2    5895215.2 
   10200         2.55    1635.9493     70828.34     -1692271    93549.348   -1598721.6    5890037.3 
   10300        2.575     1627.538    71763.874   -1691795.5    93068.358   -1598727.2    5884859.5 
   10400          2.6     1618.712    72723.426   -1691288.5    92563.659   -1598724.9    5879681.6 
   10500        2.625    1611.0579    73666.272   -1690841.7    92125.968   -1598715.8    5874503.7 
   10600         2.65    1601.7445    74656.642   -1690299.1    91593.398   -1598705.7    5869325.8 
   10700        2.675    1593.4721    75679.465   -1689822.1     91120.35   -1598701.7    5864147.9 
   10800          2.7    1584.7175    76712.582   -1689320.6    90619.735   -1598700.8      5858970 
   10900        2.725    1576.5975    77760.526   -1688853.6    90155.405   -1598698.2    5853792.1 
   11000         2.75    1567.1868    78838.124   -1688313.3    89617.268     -1598696    5848614.2 
   11100        2.775    1559.2551    79888.408     -1687861    89163.701   -1598697.3    5843436.3 
   11200          2.8    1550.7466    80972.935   -1687377.5    88677.156   -1598700.3    5838258.4 
   11300        2.825    1543.6784    82039.849   -1686973.7     88272.97   -1598700.7    5833080.5 
   11400         2.85    1537.3478    83087.924   -1686606.7    87910.965   -1598695.7    5827902.7 
   11500        2.875    1531.3285    84148.024   -1686258.7    87566.764     -1598692    5822724.8 
   11600          2.9    1525.9908    85186.453     -1685956    87261.533   -1598694.4    5817546.9 
   11700        2.925    1521.0011    86230.281   -1685676.5    86976.206   -1598700.2      5812369 
   11800         2.95    1514.4827    87330.803   -1685307.6    86603.458   -1598704.1    5807191.1 
   11900        2.975    1509.8564    88419.328   -1685040.4    86338.911   -1598701.4    5802013.2 
   12000            3    1503.8037    89520.307   -1684690.7    85992.795   -1598697.9    5796835.3 
   12100        3.025    1498.9822    90618.138   -1684413.5    85717.088   -1598696.4    5791657.4 
   12200         3.05    1493.8777    91745.539   -1684120.5    85425.191   -1598695.3    5786479.5 
   12300        3.075    1489.8331    92890.702   -1683891.6    85193.911   -1598697.7    5781301.6 
   12400          3.1    1485.5102    94054.322   -1683647.3    84946.711   -1598700.5    5776123.7 
   12500        3.125    1481.7972    95234.193   -1683435.7    84734.386   -1598701.3    5770945.9 
   12600         3.15    1477.9911    96409.597   -1683217.9    84516.742   -1598701.1      5765768 
   12700        3.175    1472.8861    97611.119   -1682923.8    84224.818   -1598698.9    5760590.1 
   12800          3.2    1469.6509    98755.206   -1682735.6    84039.819   -1598695.7    5755412.2 
   12900        3.225    1466.3068    99871.756     -1682544    83848.593   -1598695.4    5750234.3 
   13000         3.25    1460.7147    101011.94   -1682224.2    83528.815   -1598695.4    5745056.4 
   13100        3.275    1457.1035    102123.25   -1682017.2    83322.315   -1598694.9    5739878.5 
   13200          3.3    1453.2021    103259.83   -1681792.9    83099.221   -1598693.7    5734700.6 
   13300        3.325    1447.6891    104444.96   -1681476.7    82783.967   -1598692.8    5729522.7 
   13400         3.35    1443.4834    105557.01     -1681234     82543.47   -1598690.5    5724344.8 
   13500        3.375    1438.9201    106583.86   -1680970.4    82282.522   -1598687.9    5719166.9 
   13600          3.4    1432.8926    107643.67   -1680626.5    81937.847   -1598688.6    5713989.1 
   13700        3.425    1428.3053    108725.76   -1680366.9     81675.53   -1598691.4    5708811.2 
   13800         3.45    1422.1606    109927.52   -1680019.1    81324.154   -1598694.9    5703633.3 
   13900        3.475    1416.0429     111142.7   -1679672.5    80974.326   -1598698.2    5698455.4 
   14000          3.5    1410.8468    112327.26   -1679375.9    80677.193   -1598698.7    5693277.5 
   14100        3.525    1405.3752    113494.77   -1679063.2    80364.309   -1598698.9    5688099.6 
   14200         3.55    1400.7102    114695.58   -1678798.3    80097.547   -1598700.8    5682921.7 
   14300        3.575    1395.0937    115871.48   -1678480.1    79776.377   -1598703.7    5677743.8 
   14400          3.6    1390.3379    116994.24   -1678209.9    79504.423   -1598705.5    5672565.9 
   14500        3.625    1384.8801    118110.59   -1677896.2    79192.326   -1598703.9      5667388 
   14600         3.65    1380.8014    119176.65   -1677659.5    78959.091   -1598700.4    5662210.1 
   14700        3.675    1374.4855    120255.58   -1677297.3    78597.928   -1598699.3    5657032.3 
   14800          3.7    1368.4933    121305.78   -1676956.2    78255.269   -1598700.9    5651854.4 
   14900        3.725    1362.2362    122303.75   -1676601.1    77897.468   -1598703.6    5646676.5 
   15000         3.75    1356.7142    123246.72   -1676282.9    77581.703   -1598701.2    5641498.6 
   15100        3.775    1349.6175    124155.66   -1675866.9    77175.886   -1598691.1    5636320.7 
   15200          3.8    1342.1749    124998.65   -1675433.3    76750.293     -1598683    5631142.8 
   15300        3.825    1335.7247    125799.45   -1675064.9    76381.446   -1598683.5    5625964.9 
   15400         3.85    1327.1393    126576.95   -1674581.1    75890.505   -1598690.6      5620787 
   15500        3.875    1319.1095    127315.21   -1674128.2    75431.334   -1598696.8    5615609.1 
   15600          3.9    1311.3901    128019.67   -1673686.3     74989.91   -1598696.4    5610431.2 
   15700        3.925    1302.4895    128723.81   -1673175.1     74480.94   -1598694.1    5605253.3 
   15800         3.95    1294.4138    129398.16   -1672713.4    74019.146   -1598694.3    5600075.5 
   15900        3.975    1285.9682    130011.32   -1672229.9    73536.193   -1598693.7    5594897.6 
   16000            4    1278.1079    130573.84     -1671781    73086.717   -1598694.3    5589719.7 
   16100        4.025    1269.3482    131093.81   -1671284.2    72585.805   -1598698.4    5584541.8 
   16200         4.05    1261.1958    131574.59   -1670823.4    72119.623   -1598703.7    5579363.9 
   16300        4.075    1252.4133    132037.03   -1670322.9    71617.409   -1598705.5      5574186 
   16400          4.1    1243.7171    132554.19   -1669824.7    71120.128   -1598704.6    5569008.1 
   16500        4.125    1234.4364    133123.11   -1669292.4    70589.425   -1598702.9    5563830.2 
   16600         4.15    1224.2722    133785.68   -1668709.8    70008.197   -1598701.6    5558652.3 
   16700        4.175    1214.1713    134601.19   -1668136.2    69430.592   -1598705.6    5553474.4 
   16800          4.2    1203.8638    135551.02   -1667557.5    68841.178   -1598716.3    5548296.5 
   16900        4.225    1192.5538    136584.08   -1666914.9    68194.428   -1598720.5    5543118.7 
   17000         4.25    1181.1923     137670.2   -1666259.3    67544.739   -1598714.5    5537940.8 
   17100        4.275    1170.1552    138814.82     -1665626    66913.601   -1598712.4    5532762.9 
   17200          4.3    1158.7854    140039.46   -1664976.2    66263.436   -1598712.8      5527585 
   17300        4.325    1148.1436    141304.54   -1664366.4    65654.897   -1598711.5    5522407.1 
   17400         4.35    1137.6534    142610.02   -1663766.7    65055.032   -1598711.7    5517229.2 
   17500        4.375    1127.7165    143963.27   -1663201.6    64486.803   -1598714.8    5512051.3 
   17600          4.4    1118.1139    145356.73   -1662652.8    63937.692   -1598715.1    5506873.4 
   17700        4.425    1108.1957    146804.75   -1662080.6    63370.534     -1598710    5501695.5 
   17800         4.45    1100.0295    148295.71   -1661609.3    62903.564   -1598705.7    5496517.6 
   17900        4.475    1091.3503    149909.86     -1661111    62407.255   -1598703.7    5491339.7 
   18000          4.5    1082.2416    151571.54   -1660587.8    61886.387   -1598701.4    5486161.9 
   18100        4.525    1074.0403    153234.84   -1660116.6    61417.413   -1598699.2      5480984 
   18200         4.55    1064.9688    154935.25   -1659595.9    60898.668   -1598697.3    5475806.1 
   18300        4.575    1058.2698     156604.6   -1659215.9      60515.6   -1598700.3    5470628.2 
   18400          4.6    1050.0858    158338.46   -1658752.7    60047.606   -1598705.1    5465450.3 
   18500        4.625    1042.4358    160071.31   -1658315.2    59610.154   -1598705.1    5460272.4 
   18600         4.65    1035.5393    161825.66   -1657918.1    59215.787   -1598702.3    5455094.5 
   18700        4.675    1029.2665     163531.5   -1657554.9    58857.084   -1598697.8    5449916.6 
   18800          4.7    1022.6104    165264.49   -1657170.4    58476.465   -1598693.9    5444738.7 
   18900        4.725    1015.8818    167042.69   -1656781.6    58091.704   -1598689.9    5439560.8 
   19000         4.75    1010.0412     168836.4   -1656444.1    57757.714   -1598686.4    5434382.9 
   19100        4.775     1003.049    170659.24   -1656043.7     57357.88   -1598685.8    5429205.1 
   19200          4.8    996.99187    172489.22   -1655701.7    57011.509   -1598690.2    5424027.2 
   19300        4.825    989.74366    174338.34   -1655291.2    56597.031   -1598694.1    5418849.3 
   19400         4.85    981.92284     176184.7   -1654842.5    56149.809   -1598692.7    5413671.4 
   19500        4.875    974.72522    178032.59   -1654429.1    55738.224   -1598690.8    5408493.5 
   19600          4.9    967.74351     179878.4     -1654031    55338.985     -1598692    5403315.6 
   19700        4.925    959.66875    181724.05   -1653569.3    54877.242   -1598692.1    5398137.7 
   19800         4.95    951.95851    183577.62   -1653125.9    54436.343   -1598689.6    5392959.8 
   19900        4.975    944.54741    185379.31   -1652698.6     54012.55     -1598686    5387781.9 
   20000            5    937.47542    187062.07   -1652291.9    53608.149   -1598683.7      5382604 
   20100        5.025    929.51494    188746.71   -1651839.8    53152.941   -1598686.8    5377426.1 
   20200         5.05    922.97847    190312.32     -1651471    52779.162   -1598691.8    5372248.3 
   20300        5.075    916.70379    191806.08   -1651117.1    52420.354   -1598696.8    5367070.4 
   20400          5.1    909.96676    193266.87   -1650732.4    52035.107   -1598697.3    5361892.5 
   20500        5.125    904.74688    194664.33   -1650431.3    51736.616   -1598694.7    5356714.6 
   20600         5.15    899.84211     195975.7     -1650155    51456.144   -1598698.8    5351536.7 
   20700        5.175    894.32708     197230.7   -1649848.9    51140.774   -1598708.1    5346358.8 
   20800          5.2    890.21878     198371.4   -1649619.5    50905.848   -1598713.7    5341180.9 
   20900        5.225    885.54029    199496.67   -1649356.6    50638.315   -1598718.3      5336003 
   21000         5.25     881.6772    200475.16   -1649139.3     50417.41   -1598721.9    5330825.1 
   21100        5.275    878.43094    201390.89   -1648957.1    50231.777   -1598725.3    5325647.2 
   21200          5.3    876.05899    202191.09   -1648822.9    50096.141   -1598726.8    5320469.3 
   21300        5.325    872.71237    203024.15   -1648627.8     49904.77     -1598723    5315291.5 
   21400         5.35    869.88063    203764.52   -1648459.3    49742.841   -1598716.4    5310113.6 
   21500        5.375     866.5077    204524.87   -1648261.4    49549.964   -1598711.5    5304935.7 
   21600          5.4    863.82717    205217.59   -1648107.7    49396.683     -1598711    5299757.8 
   21700        5.425     859.9925    205899.38   -1647891.7    49177.402   -1598714.3    5294579.9 
   21800         5.45    857.43258    206531.42   -1647747.1    49031.017   -1598716.1      5289402 
   21900        5.475    852.82306    207208.87   -1647477.8    48767.429   -1598710.4    5284224.1 
   22000          5.5    848.83648       207874   -1647241.7    48539.462   -1598702.2    5279046.2 
   22100        5.525    844.04123     208487.8   -1646966.4    48265.253   -1598701.1    5273868.3 
   22200         5.55     839.4139    209129.83   -1646705.8    48000.646   -1598705.2    5268690.4 
   22300        5.575    834.76194    209653.71   -1646440.6     47734.63     -1598706    5263512.5 
   22400          5.6    828.21944    210119.33   -1646061.6    47360.507   -1598701.1    5258334.7 
   22500        5.625    822.53986    210507.55   -1645730.6    47035.729   -1598694.9    5253156.8 
   22600         5.65    815.98902    210831.53   -1645355.6    46661.128   -1598694.5    5247978.9 
   22700        5.675    810.22437    211060.44   -1645029.2    46331.485   -1598697.7      5242801 
   22800          5.7    802.32874     211294.3   -1644582.6    45879.985   -1598702.6    5237623.1 
   22900        5.725    794.14012    211569.05   -1644119.3    45411.731   -1598707.6    5232445.2 
   23000         5.75    787.89907    211821.82   -1643765.1    45054.846   -1598710.2    5227267.3 
   23100        5.775    779.65563    212139.39   -1643292.7    44583.457   -1598709.2    5222089.4 
   23200          5.8    771.42831    212537.32   -1642816.7     44112.99   -1598703.7    5216911.5 
   23300        5.825    765.15768    212943.54   -1642453.3    43754.413   -1598698.9    5211733.6 
   23400         5.85    755.43302     213467.4   -1641897.2    43198.323   -1598698.8    5206555.7 
   23500        5.875    748.13261    213998.46   -1641479.9    42780.859   -1598699.1    5201377.9 
   23600          5.9    739.46685    214594.27   -1640979.5    42285.321   -1598694.2      5196200 
   23700        5.925    732.27216    215243.67   -1640556.1    41873.903   -1598682.2    5191022.1 
   23800         5.95    723.58856    216023.76   -1640043.3    41377.344   -1598665.9    5185844.2 
   23900        5.975    716.45338    216921.21   -1639611.8     40969.33   -1598642.5    5180666.3 
   24000            6    708.86199    218000.06   -1639130.6    40535.227   -1598595.4    5175488.4 
   24100        6.025    700.70647    219213.49   -1638573.3    40068.866   -1598504.5    5170310.5 
   24200         6.05    695.35477    220580.92   -1638115.3    39762.837   -1598352.4    5165132.6 
   24300        6.075    689.29992    222083.41   -1637533.5    39416.599   -1598116.9    5159954.7 
   24400          6.1    685.47798    223629.19   -1636979.1    39198.047     -1597781    5154776.8 
   24500        6.125    683.02685    225239.69     -1636413    39057.883   -1597355.1    5149598.9 
   24600         6.15    681.93598    226936.02   -1635886.3    38995.503   -1596890.8    5144421.1 
   24700        6.175    680.79332    228678.96   -1635376.4    38930.162   -1596446.2    5139243.2 
   24800          6.2     678.6302    230483.56   -1634848.6    38806.467   -1596042.2    5134065.3 
   24900        6.225    674.65572    232355.33   -1634247.5    38579.192   -1595668.3    5128887.4 
   25000         6.25     671.0406    234264.51   -1633675.4    38372.467   -1595302.9    5123709.5 
   25100        6.275    666.94811    236308.18   -1633067.2    38138.444   -1594928.8    5118531.6 
   25200          6.3    663.93949    238332.93   -1632492.3    37966.401   -1594525.9    5113353.7 
   25300        6.325    660.38251    240491.85   -1631846.1    37762.999   -1594083.1    5108175.8 
   25400         6.35    656.50553     242720.1   -1631152.7      37541.3   -1593611.4    5102997.9 
   25500        6.375    653.83751    245015.47   -1630527.9    37388.733   -1593139.2      5097820 
   25600          6.4    649.72519    247386.33   -1629831.7    37153.576   -1592678.2    5092642.1 
   25700        6.425    645.71477    249829.23   -1629142.1    36924.246   -1592217.9    5087464.3 
   25800         6.45     641.1076    252261.39   -1628426.2    36660.792   -1591765.4    5082286.4 
   25900        6.475    635.91036    254793.89   -1627679.8    36363.596   -1591316.2    5077108.5 
   26000          6.5    629.55263    257348.57   -1626866.7    36000.039   -1590866.7    5071930.6 
   26100        6.525     625.0394    259902.16   -1626150.7    35741.956   -1590408.8    5066752.7 
   26200         6.55    619.38986    262460.58   -1625356.5    35418.896   -1589937.6    5061574.8 
   26300        6.575     612.9307    264997.32   -1624513.9    35049.538   -1589464.3    5056396.9 
   26400          6.6    607.87201    267448.43   -1623765.9    34760.264   -1589005.6      5051219 
   26500        6.625    601.41104    269792.03   -1622946.1    34390.803   -1588555.3    5046041.1 
   26600         6.65    593.49583    272072.43   -1622034.5    33938.184   -1588096.3    5040863.2 
   26700        6.675    589.94521     274300.3   -1621357.9    33735.147   -1587622.8    5035685.3 
   26800          6.7    583.34494    276528.67   -1620494.2     33357.72   -1587136.5    5030507.5 
   26900        6.725    578.57663    278675.45   -1619728.7    33085.051   -1586643.7    5025329.6 
   27000         6.75    573.49691    280809.36   -1618921.2    32794.575   -1586126.6    5020151.7 
   27100        6.775     569.5123    282886.94   -1618133.8    32566.721   -1585567.1    5014973.8 
   27200          6.8    566.62031    284906.11     -1617376    32401.347   -1584974.6    5009795.9 
   27300        6.825    564.22498    286889.35   -1616619.4    32264.373     -1584355      5004618 
   27400         6.85     561.7428       288835   -1615780.2    32122.433   -1583657.7    4999440.1 
   27500        6.875    561.50469     290714.8   -1614982.8    32108.817     -1582874    4994262.2 
   27600          6.9    561.31819    292559.99   -1614137.4    32098.153   -1582039.3    4989084.3 
   27700        6.925    562.99874    294343.02   -1613345.3    32194.252     -1581151    4983906.4 
   27800         6.95    564.06023    296066.28   -1612471.6    32254.952   -1580216.7    4978728.5 
   27900        6.975    566.84371    297692.23     -1611663    32414.121   -1579248.8    4973550.7 
   28000            7    568.42564    299312.23   -1610771.7    32504.582   -1578267.1    4968372.8 
   28100        7.025    571.71566    300924.72   -1609962.4    32692.717   -1577269.7    4963194.9 
   28200         7.05    574.20393    302644.57   -1609063.1    32835.005   -1576228.1      4958017 
   28300        7.075    576.79108    304475.77   -1608147.2    32982.947   -1575164.2    4952839.1 
   28400          7.1    579.28705    306286.54   -1607165.8    33125.675   -1574040.2    4947661.2 
   28500        7.125    583.56771    308150.59   -1606184.1    33370.459   -1572813.6    4942483.3 
   28600         7.15    587.78137    310084.32   -1605114.1    33611.411   -1571502.7    4937305.4 
   28700        7.175    591.59447    312057.87   -1603923.4    33829.457     -1570094    4932127.5 
   28800          7.2     599.7346    313944.56     -1602908    34294.939   -1568613.1    4926949.6 
   28900        7.225    605.27288    315874.13   -1601707.6    34611.637     -1567096    4921771.7 
   29000         7.25    613.01043    317758.89   -1600597.6    35054.097   -1565543.5    4916593.9 
   29100        7.275     619.7864    319780.33     -1599416    35441.571   -1563974.5      4911416 
   29200          7.3    625.32458    321935.26   -1598152.2    35758.264     -1562394    4906238.1 
   29300        7.325    628.99323    324262.84   -1596736.1     35968.05   -1560768.1    4901060.2 
   29400         7.35    634.16027    326678.27     -1595369     36263.52   -1559105.5    4895882.3 
   29500        7.375    637.63239    329171.41   -1593868.5    36462.068   -1557406.5    4890704.4 
   29600          7.4    642.86867    331709.07   -1592402.9    36761.496   -1555641.4    4885526.5 
   29700        7.425    646.27848    334323.99     -1590769    36956.482   -1553812.6    4880348.6 
   29800         7.45    651.99405    336990.47   -1589168.2    37283.318   -1551884.8    4875170.7 
   29900        7.475    657.67403    339739.68     -1587407    37608.119   -1549798.9    4869992.8 
   30000          7.5    664.84032    342607.42   -1585617.2    38017.913   -1547599.3    4864814.9 
   30100        7.525    673.16843    345587.37   -1583782.4    38494.144   -1545288.3    4859637.1 
   30200         7.55    683.69947    348617.47   -1581969.1    39096.346   -1542872.8    4854459.2 
   30300        7.575    692.76692    351715.09   -1580025.6    39614.855   -1540410.7    4849281.3 
   30400          7.6    704.36664       354863   -1578184.4    40278.167   -1537906.3    4844103.4 
   30500        7.625    716.78433     358057.6   -1576323.9    40988.255   -1535335.7    4838925.5 
   30600         7.65    728.45866    361262.68   -1574386.8    41655.834     -1532731    4833747.6 
   30700        7.675     739.7297    364551.72   -1572375.7    42300.351   -1530075.3    4828569.7 
   30800          7.7    754.92448    367944.76     -1570514    43169.243   -1527344.8    4823391.8 
   30900        7.725    768.97748    371469.49   -1568554.1    43972.843   -1524581.2    4818213.9 
   31000         7.75    784.37913    375083.87     -1566622    44853.563   -1521768.4      4813036 
   31100        7.775    800.50151    378836.16   -1564658.4    45775.498   -1518882.9    4807858.1 
   31200          7.8    818.73292    382634.32   -1562768.7    46818.034   -1515950.7    4802680.2 
   31300        7.825    837.92082    386601.71   -1560909.6    47915.266   -1512994.3    4797502.4 
   31400         7.85    856.25519    390524.04   -1558969.8     48963.69   -1510006.1    4792324.5 
   31500        7.875    877.38268    394412.21   -1557123.7    50171.834   -1506951.8    4787146.6 
   31600          7.9    899.37805    398189.48   -1555301.1    51429.607   -1503871.5    4781968.7 
   31700        7.925    923.63845     401724.6   -1553607.1    52816.902   -1500790.2    4776790.8 
   31800         7.95    948.25382    405236.08   -1551878.5    54224.496     -1497654    4771612.9 
   31900        7.975    976.02806    408694.23   -1550330.1    55812.725   -1494517.4      4766435 
   32000            8    999.39826     412183.3   -1548609.7    57149.115   -1491460.6    4761257.1 
   32100        8.025    1026.4297    415721.93     -1547080     58694.87   -1488385.2    4756079.2 
   32200         8.05    1054.0621    419281.74   -1545558.9    60274.985     -1485284    4750901.3 
   32300        8.075    1081.1594    422754.08   -1544036.7    61824.507   -1482212.2    4745723.4 
   32400          8.1    1109.7726    426121.94   -1542564.8     63460.71   -1479104.1    4740545.6 
   32500        8.125     1139.977    429330.35   -1541187.1      65187.9   -1475999.2    4735367.7 
   32600         8.15    1172.0772    432498.72   -1539957.4    67023.508   -1472933.9    4730189.8 
   32700        8.175    1204.4952     435580.9   -1538710.5    68877.278   -1469833.3    4725011.9 
   32800          8.2    1238.6831    438571.71   -1537565.5    70832.264   -1466733.2      4719834 
   32900        8.225    1274.7582     441478.9     -1536535    72895.169   -1463639.8    4714656.1 
   33000         8.25    1311.3289     444274.3   -1535493.5    74986.411   -1460507.1    4709478.2 
   33100        8.275    1348.8097    447043.23   -1534473.5    77129.695   -1457343.8    4704300.3 
   33200          8.3    1388.4591    449767.76     -1533577    79396.988     -1454180    4699122.4 
   33300        8.325    1428.7268    452427.88   -1532729.8    81699.635   -1451030.2    4693944.5 
   33400         8.35    1469.1888    455169.48     -1531911    84013.393   -1447897.6    4688766.6 
   33500        8.375    1506.8456    458144.23   -1530936.3    86166.745   -1444769.6    4683588.8 
   33600          8.4    1544.7759    461330.22   -1529980.6    88335.732   -1441644.9    4678410.9 
   33700        8.425    1581.8447    464650.31   -1528964.1    90455.453   -1438508.6      4673233 
   33800         8.45    1618.7675    468028.96   -1527983.2    92566.833   -1435416.3    4668055.1 
   33900        8.475     1651.174     471406.4   -1526843.2    94419.952   -1432423.2    4662877.2 
   34000          8.5    1680.0462     474768.3   -1525565.8    96070.964   -1429494.8    4657699.3 
   34100        8.525    1710.4732    478101.26     -1524461    97810.884   -1426650.1    4652521.4 
   34200         8.55    1735.5829    481469.38   -1523135.1    99246.747   -1423888.3    4647343.5 
   34300        8.575    1759.2207    484880.64   -1521795.4    100598.44     -1421197    4642165.6 
   34400          8.6    1780.7479    488296.84     -1520437    101829.44   -1418607.6    4636987.7 
   34500        8.625    1802.7329    491863.24     -1519172    103086.62   -1416085.3    4631809.8 
   34600         8.65    1824.3959    495440.11   -1517905.9    104325.39   -1413580.5      4626632 
   34700        8.675    1842.6207    499075.16   -1516463.1    105367.55   -1411095.6    4621454.1 
   34800          8.7    1863.8108    502642.67   -1515176.1    106579.27   -1408596.8    4616276.2 
   34900        8.725    1884.3065    506205.36   -1513838.8    107751.29   -1406087.5    4611098.3 
   35000         8.75    1905.4984    509826.74   -1512569.1    108963.11     -1403606    4605920.4 
   35100        8.775    1922.6274     513483.1   -1511102.7    109942.61   -1401160.1    4600742.5 
   35200          8.8    1942.4753    517221.69   -1509854.3    111077.59   -1398776.7    4595564.6 
   35300        8.825    1956.5498    521033.55   -1508325.5    111882.41   -1396443.1    4590386.7 
   35400         8.85    1968.6521    524973.72   -1506731.8    112574.47   -1394157.3    4585208.8 
   35500        8.875    1978.1616    529026.92   -1505037.3    113118.25   -1391919.1    4580030.9 
   35600          8.9     1987.197    533236.85   -1503344.1    113634.93   -1389709.2      4574853 
   35700        8.925    1991.7975     537602.2   -1501452.9       113898   -1387554.9    4569675.2 
   35800         8.95    1994.3049    542062.18   -1499513.9    114041.39   -1385472.6    4564497.3 
   35900        8.975    1995.5029    546692.08   -1497583.6    114109.89   -1383473.7    4559319.4 
   36000            9    1993.4919    551292.06   -1495540.2    113994.89   -1381545.3    4554141.5 
   36100        9.025    1990.0911    555675.79   -1493448.3    113800.42   -1379647.8    4548963.6 
   36200         9.05    1991.4206    559720.42   -1491666.7    113876.45   -1377790.2    4543785.7 
   36300        9.075     1991.058    563515.22   -1489828.9    113855.72   -1375973.2    4538607.8 
   36400          9.1    1991.2447    567218.98   -1488048.6    113866.39   -1374182.2    4533429.9 
   36500        9.125    1990.5384    570929.95   -1486266.4       113826   -1372440.4      4528252 
   36600         9.15    1991.6856     574681.7   -1484614.7     113891.6   -1370723.1    4523074.1 
   36700        9.175    1989.8922    578365.31   -1482814.5    113789.05   -1369025.5    4517896.2 
   36800          9.2    1987.7457    581873.06   -1481037.9    113666.31   -1367371.6    4512718.4 
   36900        9.225      1987.04    585179.98   -1479390.8    113625.95   -1365764.8    4507540.5 
   37000         9.25    1983.5375    588492.59     -1477608    113425.66   -1364182.4    4502362.6 
   37100        9.275    1982.2574    591640.46   -1475983.9    113352.46   -1362631.4    4497184.7 
   37200          9.3    1980.4297       594674   -1474371.3    113247.95   -1361123.3    4492006.8 
   37300        9.325    1977.8255    597619.44   -1472709.8    113099.04   -1359610.7    4486828.9 
   37400         9.35    1977.6129    600536.01   -1471193.8    113086.88   -1358106.9      4481651 
   37500        9.375    1977.3956    603451.34   -1469701.7    113074.45   -1356627.2    4476473.1 
   37600          9.4    1979.4103    606096.05   -1468335.1    113189.66   -1355145.4    4471295.2 
   37700        9.425    1981.8293    608785.59   -1466976.7    113327.99   -1353648.7    4466117.3 
   37800         9.45    1983.1527    611681.67   -1465513.8    113403.66   -1352110.1    4460939.4 
   37900        9.475    1985.9684    615060.18   -1464011.8    113564.67   -1350447.2    4455761.6 
   38000          9.5    1990.7118    618788.28   -1462457.5    113835.92   -1348621.6    4450583.7 
   38100        9.525    1997.9528    622539.85   -1460943.7    114249.98   -1346693.7    4445405.8 
   38200         9.55    2007.1188    626248.66   -1459491.4    114774.13   -1344717.3    4440227.9 
   38300        9.575    2016.7981    630133.51   -1458063.6    115327.62     -1342736      4435050 
   38400          9.6    2025.0626    633917.16   -1456606.3    115800.22   -1340806.1    4429872.1 
   38500        9.625    2036.0131    637524.61   -1455328.8    116426.41   -1338902.4    4424694.2 
   38600         9.65    2045.0392    641070.59   -1453930.8    116942.55   -1336988.2    4419516.3 
   38700        9.675    2056.9166       644607     -1452670    117621.74   -1335048.2    4414338.4 
   38800          9.7    2069.3205    648193.48   -1451373.1    118331.04   -1333042.1    4409160.5 
   38900        9.725    2081.2605    651839.28   -1450022.8    119013.81     -1331009    4403982.6 
   39000         9.75      2095.62    655520.59   -1448862.4    119834.94   -1329027.5    4398804.8 
   39100        9.775    2106.7433    659148.13   -1447558.2    120471.01   -1327087.2    4393626.9 
   39200          9.8    2120.3506    662727.46   -1446386.4    121249.12   -1325137.3      4388449 
   39300        9.825    2133.9043    666265.42   -1445160.8    122024.17   -1323136.7    4383271.1 
   39400         9.85    2148.8723    670001.95   -1443927.2    122880.09   -1321047.1    4378093.2 
   39500        9.875    2161.9088    673862.34   -1442555.5    123625.56   -1318929.9    4372915.3 
   39600          9.9    2175.8164     677781.8   -1441239.3    124420.85   -1316818.4    4367737.4 
   39700        9.925    2191.1166    681729.01   -1439958.1    125295.77   -1314662.3    4362559.5 
   39800         9.95    2204.9059    685607.99   -1438575.3    126084.29     -1312491    4357381.6 
   39900        9.975    2217.4029    689566.24   -1437143.1    126798.92   -1310344.2    4352203.7 
   40000           10    2231.7048    693563.69   -1435810.3    127616.75   -1308193.5    4347025.8 
   40100       10.025    2245.0775    697608.86   -1434450.8    128381.44   -1306069.4      4341848 
   40200        10.05    2259.1374    701569.91   -1433168.3    129185.44   -1303982.9    4336670.1 
   40300       10.075    2273.9349    704874.52     -1431905    130031.61   -1301873.4    4331492.2 
   40400         10.1      2292.81    707595.79   -1430860.5    131110.96   -1299749.6    4326314.3 
   40500       10.125    2308.3666    710153.18   -1429612.5    132000.54   -1297611.9    4321136.4 
   40600        10.15    2325.2081    713154.41   -1428396.2    132963.59   -1295432.6    4315958.5 
   40700       10.175    2341.8749    716534.18   -1427139.6    133916.66     -1293223    4310780.6 
   40800         10.2    2353.8376    720196.74   -1425512.6    134600.73   -1290911.9    4305602.7 
   40900       10.225    2371.2679    723704.29   -1423998.3    135597.46   -1288400.8    4300424.8 
   41000        10.25    2386.7266    727172.79   -1422242.6    136481.44   -1285761.2    4295246.9 
   41100       10.275    2401.2197    730970.67   -1420323.1    137310.21   -1283012.8      4290069 
   41200         10.3    2400.6749    735173.24   -1417443.3    137279.05   -1280164.3    4284891.2 
   41300       10.325    2397.0728     739340.2   -1414354.5    137073.07   -1277281.4    4279713.3 
   41400        10.35    2398.5464    743538.17   -1411529.3    137157.34     -1274372    4274535.4 
   41500       10.375    2389.2192    747370.48   -1408085.6    136623.98   -1271461.6    4269357.5 
   41600         10.4    2386.7365    751691.15   -1405069.3    136482.01   -1268587.3    4264179.6 
   41700       10.425    2376.4576    755801.87   -1401621.1    135894.22   -1265726.9    4259001.7 
   41800        10.45    2369.6445    760337.46   -1398414.5    135504.63   -1262909.8    4253823.8 
   41900       10.475     2352.883    765310.14   -1394698.9    134546.15   -1260152.8    4248645.9 
   42000         10.5    2336.7645    770815.91   -1391056.1    133624.43   -1257431.7      4243468 
   42100       10.525    2319.2639    776372.08   -1387369.2    132623.68   -1254745.5    4238290.1 
   42200        10.55    2301.2131    781603.82   -1383671.4    131591.48   -1252079.9    4233112.2 
   42300       10.575    2280.3774    786941.77   -1379828.4    130400.02   -1249428.4    4227934.4 
   42400         10.6    2260.8096     792270.9   -1376067.2    129281.06   -1246786.1    4222756.5 
   42500       10.625    2238.9337    797350.73   -1372137.9    128030.12   -1244107.8    4217578.6 
   42600        10.65    2218.2179    802158.66   -1368257.6    126845.52   -1241412.1    4212400.7 
   42700       10.675    2197.3273    806960.71   -1364394.9    125650.92     -1238744    4207222.8 
   42800         10.7    2176.8788    811482.82   -1360546.1     124481.6   -1236064.4    4202044.9 
   42900       10.725    2155.0969    815759.08   -1356605.8    123236.04   -1233369.8      4196867 
   43000        10.75    2132.1443    820126.04   -1352656.6    121923.53   -1230733.1    4191689.1 
   43100       10.775    2107.9194    824528.41   -1348661.8    120538.26   -1228123.6    4186511.2 
   43200         10.8    2085.0337    828766.26   -1344764.6    119229.58     -1225535    4181333.3 
   43300       10.825    2064.4715    832705.97   -1341065.7    118053.76   -1223011.9    4176155.4 
   43400        10.85    2043.2592    836079.57   -1337345.1    116840.76   -1220504.3    4170977.6 
   43500       10.875    2024.5649    838841.46   -1333793.9    115771.76   -1218022.2    4165799.7 
   43600         10.9    2002.6448    841570.57   -1330088.9    114518.29   -1215570.7    4160621.8 
   43700       10.925    1979.8954    844934.54   -1326347.8     113217.4   -1213130.4    4155443.9 
   43800        10.95    1959.7966    848682.79   -1322776.9    112068.08   -1210708.9      4150266 
   43900       10.975    1941.3171    852907.31   -1319325.4    111011.35   -1208314.1    4145088.1 
   44000           11    1923.5949    857349.09     -1315924    109997.94   -1205926.1    4139910.2 
   44100       11.025     1909.253    861580.48   -1312728.7    109177.82   -1203550.9    4134732.3 
   44200        11.05    1898.8138    865621.35   -1309736.2    108580.86   -1201155.3    4129554.4 
   44300       11.075    1888.1681    869775.99   -1306726.3    107972.11   -1198754.2    4124376.5 
   44400         11.1    1880.9236    874070.21   -1303958.2    107557.84   -1196400.4    4119198.6 
   44500       11.125    1874.1563    878677.98   -1301259.7    107170.87   -1194088.8    4114020.8 
   44600        11.15    1869.2454    883479.43   -1298686.2    106890.04   -1191796.2    4108842.9 
   44700       11.175    1858.8187    888166.67   -1295810.4    106293.81   -1189516.6      4103665 
   44800         11.2    1849.8906    893358.79   -1293029.5    105783.26   -1187246.2    4098487.1 
   44900       11.225    1843.7569    899394.94     -1290426    105432.52   -1184993.5    4093309.2 
   45000        11.25    1838.4945    905900.62   -1287845.2    105131.59   -1182713.6    4088131.3 
   45100       11.275    1834.4853    912670.95     -1285310    104902.34   -1180407.7    4082953.4 
   45200         11.3    1831.3903    919276.77   -1282846.9    104725.35   -1178121.5    4077775.5 
   45300       11.325    1829.6652    925519.75   -1280422.1     104626.7   -1175795.4    4072597.6 
   45400        11.35    1830.1204     931626.7   -1278065.9    104652.74   -1173413.2    4067419.7 
   45500       11.375    1830.5887    937547.67   -1275710.5    104679.51     -1171031    4062241.8 
   45600         11.4    1830.9683    943347.97   -1273341.8    104701.22   -1168640.6      4057064 
   45700       11.425    1826.7675    949316.95   -1270735.8       104461   -1166274.8    4051886.1 
   45800        11.45    1819.8422    955606.09   -1268074.1    104064.99   -1164009.1    4046708.2 
   45900       11.475    1807.1947    961801.58   -1265151.1    103341.76   -1161809.3    4041530.3 
   46000         11.5    1793.7417    968021.18   -1262208.2    102572.47   -1159635.7    4036352.4 
   46100       11.525    1777.9377    974073.63   -1259146.5    101668.74   -1157477.8    4031174.5 
   46200        11.55    1760.6182    979882.11   -1256006.9    100678.36   -1155328.5    4025996.6 
   46300       11.575    1744.8822    985303.67   -1252947.1    99778.514   -1153168.6    4020818.7 
   46400         11.6    1727.6205    989740.46   -1249767.8    98791.432   -1150976.4    4015640.8 
   46500       11.625     1714.266     993220.1   -1246820.7     98027.77   -1148792.9    4010462.9 
   46600        11.65    1696.5744    996071.46   -1243635.6    97016.106   -1146619.5      4005285 
   46700       11.675    1676.4555    998948.09   -1240275.5    95865.633   -1144409.9    4000107.2 
   46800         11.7    1657.5414    1001984.4   -1236965.3    94784.062   -1142181.3    3994929.3 
   46900       11.725    1637.6757    1005282.4   -1233597.4     93648.07   -1139949.4    3989751.4 
   47000        11.75    1617.2903      1008722     -1230169    92482.362   -1137686.6    3984573.5 
   47100       11.775    1595.0729    1011654.2   -1226647.3    91211.892   -1135435.4    3979395.6 
   47200         11.8    1571.0646    1014102.3   -1223042.7    89839.011   -1133203.7    3974217.7 
   47300       11.825    1547.1376    1016517.3   -1219434.1    88470.779   -1130963.4    3969039.8 
   47400        11.85    1521.7081    1019091.6   -1215788.5    87016.634   -1128771.9    3963861.9 
   47500       11.875    1495.3425    1021886.2   -1212106.2    85508.958   -1126597.3      3958684 
   47600         11.9    1470.8521    1024958.1   -1208492.5    84108.508     -1124384    3953506.1 
   47700       11.925    1445.6482    1027990.4   -1204851.2    82667.259   -1122183.9    3948328.2 
   47800        11.95    1415.7834    1031606.7   -1200955.9    80959.484   -1119996.5    3943150.4 
   47900       11.975    1387.9193    1036513.4   -1197154.5    79366.118   -1117788.4    3937972.5 
   48000           12    1363.2637    1042201.3   -1193553.9    77956.223   -1115597.6    3932794.6 
   48100       12.025    1338.2774    1048202.2   -1189930.3    76527.416   -1113402.9    3927616.7 
   48200        12.05    1312.5991    1053932.6   -1186233.8    75059.043   -1111174.7    3922438.8 
   48300       12.075    1289.8942      1059703     -1182695    73760.696   -1108934.3    3917260.9 
   48400         12.1    1267.2799    1065586.4     -1179127    72467.532   -1106659.5      3912083 
   48500       12.125    1244.2769    1071804.8   -1175494.5     71152.14   -1104342.4    3906905.1 
   48600        12.15    1224.5548    1078151.9     -1172042     70024.36   -1102017.6    3901727.2 
   48700       12.175    1207.6432    1084479.4   -1168735.2    69057.297   -1099677.9    3896549.3 
   48800         12.2    1187.5664    1090582.7     -1165229    67909.234   -1097319.8    3891371.4 
   48900       12.225     1174.864    1096987.2   -1162143.1    67182.863   -1094960.2    3886193.6 
   49000        12.25    1159.1083    1103345.5   -1158823.5      66281.9   -1092541.6    3881015.7 
   49100       12.275    1147.7559    1109646.4   -1155724.1    65632.726   -1090091.4    3875837.8 
   49200         12.3    1133.8768    1115684.5   -1152484.4     64839.07   -1087645.4    3870659.9 
   49300       12.325    1123.7142    1121516.2   -1149424.9     64257.94   -1085166.9      3865482 
   49400        12.35     1113.196    1126926.8     -1146372    63656.471   -1082715.5    3860304.1 
   49500       12.375    1102.4118    1131836.2   -1143357.7    63039.795   -1080317.9    3855126.2 
   49600         12.4    1094.1223    1136156.9     -1140498    62565.769   -1077932.2    3849948.3 
   49700       12.425     1081.084    1140397.9   -1137395.4    61820.195   -1075575.2    3844770.4 
   49800        12.45    1070.0472    1144809.8   -1134428.2    61189.071   -1073239.1    3839592.5 
   49900       12.475    1060.9362    1149916.9   -1131505.8    60668.074   -1070837.7    3834414.6 
   50000         12.5    1057.0417      1155302   -1128737.6    60445.368   -1068292.3    3829236.8 
Loop time of 397.765 on 24 procs for 50000 steps with 442392 atoms

Performance: 2.715 ns/day, 8.839 hours/ns, 125.702 timesteps/s
99.7% CPU use with 24 MPI tasks x 1 OpenMP threads

MPI task timing breakdown:
Section |  min time  |  avg time  |  max time  |%varavg| %total
---------------------------------------------------------------
Pair    | 163.64     | 184.58     | 202.01     |  63.7 | 46.40
Neigh   | 0.029346   | 0.042089   | 0.057934   |   4.2 |  0.01
Comm    | 42.032     | 45.518     | 49.548     |  30.7 | 11.44
Output  | 14.996     | 15         | 15.096     |   0.5 |  3.77
Modify  | 119.26     | 134.75     | 154.86     |  71.2 | 33.88
Other   |            | 17.88      |            |       |  4.50

Nlocal:        18433.0 ave       20111 max       16732 min
Histogram: 4 0 2 2 7 1 0 4 0 4
Nghost:        25503.4 ave       27402 max       23939 min
Histogram: 4 2 3 5 2 0 0 3 1 4
Neighs:         0.00000 ave           0 max           0 min
Histogram: 24 0 0 0 0 0 0 0 0 0

Total # of neighbors = 0
Ave neighs/atom = 0.0000000
Neighbor list builds = 450
Dangerous builds = 0


---------------------------------------------------------------------
      Device Time Info (average): 
---------------------------------------------------------------------
Data Transfer:   22.5755 s.
Neighbor copy:   0.0177 s.
Neighbor build:  1.2981 s.
Force calc:      115.9216 s.
Device Overhead: 66.9994 s.
Average split:   1.0000.
Lanes / atom:    4.
Vector width:    32.
Max Mem / Proc:  83.61 MB.
CPU Neighbor:    0.2375 s.
CPU Cast/Pack:   13.5445 s.
CPU Driver_Time: 0.9303 s.
CPU Idle_Time:   50.7475 s.
---------------------------------------------------------------------

Total wall time: 0:06:48
