LAMMPS (24 Mar 2022)
OMP_NUM_THREADS environment is not set. Defaulting to 1 thread. (src/comm.cpp:98)
  using 1 OpenMP thread(s) per MPI task

# System init

units      metal
dimension  3
boundary   p p p
atom_style atomic
timestep   0.00025


# read data
read_data combined_cells.data
Reading data file ...
  orthogonal box = (0 0 0) to (100.90559 100.90559 72.465015)
  2 by 3 by 1 MPI processor grid
  reading atoms ...
  52920 atoms
  read_data CPU = 0.199 seconds

# pair potential

pair_style hybrid/overlay eam/alloy edip/multi
pair_coeff * * eam/alloy Mishin-Ni-Al-2009.eam.alloy Al NULL
pair_coeff * * edip/multi NiAlO.edip Al O

mass 2 15.999


# reporting
thermo_style custom step time temp pe epair etotal press vol lx ly lz spcpu cpuremain elapsed
thermo 100

dump   1 all atom 100 generic.lammpstrj

# Single point
min_style cg
minimize 1e-5 1e-5 10000 100000

CITE-CITE-CITE-CITE-CITE-CITE-CITE-CITE-CITE-CITE-CITE-CITE-CITE

Your simulation uses code contributions which should be cited:

- @article{cjiang2012
 author    = {Jian, Chao and Morgan, Dane, and Szlufarska, Izabella},
 title     = {Carbon tri-interstitial defect: A model for DII center},
 journal   = {Physical Review B},
 volume    = {86},
 pages     = {144118},
 year      = {2012},
}

@article{lpizzagalli2010,
 author    = {G. Lucas, M. Bertolus, and L. Pizzagalli},
 journal   = {J. Phys. : Condens. Matter 22},
 volume    = {22},
 pages     = {035802},
 year      = {2010},
}

CITE-CITE-CITE-CITE-CITE-CITE-CITE-CITE-CITE-CITE-CITE-CITE-CITE

WARNING: Using 'neigh_modify every 1 delay 0 check yes' setting during minimization (src/min.cpp:187)
Neighbor list info ...
  update every 1 steps, delay 0 steps, check yes
  max neighbors/atom: 2000, page size: 100000
  master list distance cutoff = 8.28721
  ghost atom cutoff = 8.28721
  binsize = 4.143605, bins = 25 25 18
  3 neighbor lists, perpetual/occasional/extra = 3 0 0
  (1) pair eam/alloy, perpetual, skip from (3)
      attributes: half, newton on
      pair build: skip
      stencil: none
      bin: none
  (2) pair edip/multi, perpetual
      attributes: full, newton on
      pair build: full/bin/atomonly
      stencil: full/bin/3d
      bin: standard
  (3) neighbor class addition, perpetual, half/full from (2)
      attributes: half, newton on
      pair build: halffull/newton
      stencil: none
      bin: none
Per MPI rank memory allocation (min/avg/max) = 16.3 | 16.49 | 16.68 Mbytes
   Step          Time           Temp          PotEng         E_pair         TotEng         Press          Volume           Lx             Ly             Lz           S/CPU         CPULeft       Elapsed  
         0   0              0              2075809.8      2075809.8      2075809.8      187325.57      737834.26      100.90559      100.90559      72.465015      0              0                      0 
        75   0.01875        0             -400136.19     -400136.19     -400136.19     -28458.972      737834.26      100.90559      100.90559      72.465015      6.8833965      1441.8755             75 
Loop time of 10.8958 on 6 procs for 75 steps with 52920 atoms

99.8% CPU use with 6 MPI tasks x 1 OpenMP threads

Minimization stats:
  Stopping criterion = energy tolerance
  Energy initial, next-to-last, final = 
      2075809.80089475  -400136.056323447  -400136.185561181
  Force two-norm initial, final = 1.2863766e+10 363.43259
  Force max component initial, final = 1.7411329e+08 7.3216635
  Final line search alpha, max atom move = 0.0076512701 0.056020025
  Iterations, force evaluations = 75 150

MPI task timing breakdown:
Section |  min time  |  avg time  |  max time  |%varavg| %total
---------------------------------------------------------------
Pair    | 9.9644     | 10.02      | 10.091     |   1.3 | 91.96
Neigh   | 0.047869   | 0.048109   | 0.04861    |   0.1 |  0.44
Comm    | 0.69542    | 0.76638    | 0.82215    |   4.8 |  7.03
Output  | 0          | 0          | 0          |   0.0 |  0.00
Modify  | 0          | 0          | 0          |   0.0 |  0.00
Other   |            | 0.0613     |            |       |  0.56

Nlocal:           8820 ave        8820 max        8820 min
Histogram: 6 0 0 0 0 0 0 0 0 0
Nghost:          14952 ave       14952 max       14952 min
Histogram: 6 0 0 0 0 0 0 0 0 0
Neighs:              0 ave           0 max           0 min
Histogram: 6 0 0 0 0 0 0 0 0 0
FullNghs:       875238 ave      875238 max      875238 min
Histogram: 6 0 0 0 0 0 0 0 0 0

Total # of neighbors = 5251428
Ave neighs/atom = 99.233333
Neighbor list builds = 1
Dangerous builds = 0

# Thermalisation

velocity all create 300 1 mom yes rot no

fix 1 all npt temp 300 300 $(100.0*dt) iso 1.0 1.0 $(1000*dt)
fix 1 all npt temp 300 300 0.025000000000000001388 iso 1.0 1.0 $(1000*dt)
fix 1 all npt temp 300 300 0.025000000000000001388 iso 1.0 1.0 0.25

run  10000
Per MPI rank memory allocation (min/avg/max) = 14.43 | 14.43 | 14.43 Mbytes
   Step          Time           Temp          PotEng         E_pair         TotEng         Press          Volume           Lx             Ly             Lz           S/CPU         CPULeft       Elapsed  
        75   0              300           -400136.19     -400136.19     -398084.09     -25488.278      737834.26      100.90559      100.90559      72.465015      0              0                      0 
       100   0.00625        208.38392     -399503.84     -399503.84     -398078.43     -10459.631      738167.65      100.92078      100.92078      72.475928      13.385405      745.21491             25 
       200   0.03125        404.47609     -400792.93     -400792.93     -398026.19      7066.5865      739807.48      100.99546      100.99546      72.529557      13.417711      736.32288            125 
       300   0.05625        623.41205     -402861.77     -402861.77     -398597.44     -1797.6657      748436.55      101.38661      101.38661      72.810461      14.591316      702.66758            225 
       400   0.08125        609.5757      -403700.35     -403700.35     -399530.66      2802.3996      755001.25      101.68218      101.68218      73.02272       14.372729      688.6086             325 
       500   0.10625        511.11699     -403919.85     -403919.85     -400423.64     -707.58192      760276.92      101.91847      101.91847      73.192411      14.854945      672.80304            425 
       600   0.13125        454.83432     -404248.23     -404248.23     -401137.02      1543.9948      765584.52      102.15509      102.15509      73.362338      14.920238      659.92249            525 
       700   0.15625        450.29406     -404842.55     -404842.55     -401762.4      -1394.2819      768711.22      102.29397      102.29397      73.462075      14.866733      649.38081            625 
       800   0.18125        457.07854     -405574.05     -405574.05     -402447.49     -469.70734      764615.04      102.11195      102.11195      73.331358      14.460206      642.31083            725 
       900   0.20625        424.55438     -405986.13     -405986.13     -403082.04      423.13724      759955.09      101.90408      101.90408      73.182082      14.211668      636.6233             825 
      1000   0.23125        385.34487     -406262.58     -406262.58     -403626.7      -281.36706      759309.16      101.8752       101.8752       73.161342      14.2881        630.27482            925 
      1100   0.25625        348.31573     -406440.69     -406440.69     -404058.1      -106.92834      759159.78      101.86852      101.86852      73.156544      14.35143       623.52902           1025 
      1200   0.28125        311.32677     -406498.75     -406498.75     -404369.18      2007.1257      760691.59      101.93699      101.93699      73.205715      14.455842      616.34669           1125 
      1300   0.30625        311.14642     -406703.81     -406703.81     -404575.47     -489.82486      761568.9       101.97617      101.97617      73.233847      14.330671      609.64039           1225 
      1400   0.33125        302.12891     -406837.58     -406837.58     -404770.92      701.71021      760661.96      101.93567      101.93567      73.204765      14.422139      602.60333           1325 
      1500   0.35625        297.26639     -406932.27     -406932.27     -404898.87      632.22662      761341.63      101.96602      101.96602      73.226562      14.357469      595.7687            1425 
      1600   0.38125        293.84231     -406978.06     -406978.06     -404968.09     -1594.6446      762939.07      102.03728      102.03728      73.27774       13.097039      592.64207           1525 
      1700   0.40625        294.14045     -406967.11     -406967.11     -404955.1       1013.9585      762765.04      102.02953      102.02953      73.272168      12.689564      590.22412           1625 
      1800   0.43125        300.13427     -406916.72     -406916.72     -404863.7      -230.48098      763103.68      102.04462      102.04462      73.28301       13.028928      586.18818           1725 
      1900   0.45625        306.38784     -406891.51     -406891.51     -404795.72     -1960.792       763204.48      102.04912      102.04912      73.286236      12.661843      582.75016           1825 
      2000   0.48125        307.69136     -406931.26     -406931.26     -404826.55     -492.71271      762439.83      102.01502      102.01502      73.261753      11.326663      582.75408           1925 
      2100   0.50625        301.83109     -407002.46     -407002.46     -404937.84      1740.9295      762613.77      102.02278      102.02278      73.267324      12.046367      579.80832           2025 
      2200   0.53125        293.24513     -407043.55     -407043.55     -405037.66     -633.01212      764718.65      102.11656      102.11656      73.33467       13.165714      573.74301           2125 
      2300   0.55625        291.805       -407032.71     -407032.71     -405036.67      15.77309       764204.52      102.09367      102.09367      73.318232      13.119529      567.63359           2225 
      2400   0.58125        301.29809     -407003.35     -407003.35     -404942.37      44.774928      764443.5       102.10431      102.10431      73.325874      13.273684      561.10182           2325 
      2500   0.60625        311.06842     -407018.42     -407018.42     -404890.61      418.04104      764268.91      102.09654      102.09654      73.320291      12.936731      555.10037           2425 
      2600   0.63125        304.84217     -407055.25     -407055.25     -404970.04     -59.850896      764326.99      102.09912      102.09912      73.322148      13.010163      548.83284           2525 
      2700   0.65625        297.87191     -407129.94     -407129.94     -405092.4       735.99398      763480.43      102.06141      102.06141      73.295068      12.992142      542.48718           2625 
      2800   0.68125        294.20148     -407177.81     -407177.81     -405165.38      54.632298      763379.3       102.05691      102.05691      73.291832      11.319336      539.07909           2725 
      2900   0.70625        294.99169     -407179.2      -407179.2      -405161.36      929.58509      763492.81      102.06196      102.06196      73.295464      10.971111      535.99902           2825 
      3000   0.73125        300.81074     -407153.46     -407153.46     -405095.82     -257.60962      763414.37      102.05847      102.05847      73.292954      13.316599      528.62312           2925 
      3100   0.75625        306.38065     -407149.06     -407149.06     -405053.32     -768.93801      763372.14      102.05659      102.05659      73.291603      12.397438      522.52216           3025 
      3200   0.78125        302.78955     -407161.25     -407161.25     -405090.07      297.2597       763547.84      102.06442      102.06442      73.297225      12.362272      516.3459            3125 
      3300   0.80625        299.4059      -407206.73     -407206.73     -405158.7      -805.89056      763826.76      102.07684      102.07684      73.306149      12.233571      510.22978           3225 
      3400   0.83125        297.56587     -407247.38     -407247.38     -405211.93      1252.3874      763702.23      102.0713       102.0713       73.302165      14.182847      501.73451           3325 
      3500   0.85625        298.98303     -407277.05     -407277.05     -405231.91      324.8876       763610.58      102.06721      102.06721      73.299233      14.009987      493.4906            3425 
      3600   0.88125        300.07865     -407288.57     -407288.57     -405235.94     -784.79548      763706.21      102.07147      102.07147      73.302292      14.244175      485.09388           3525 
      3700   0.90625        301.1753      -407302.9      -407302.9      -405242.77      883.79206      763552.49      102.06462      102.06462      73.297374      14.220122      476.79398           3625 
      3800   0.93125        301.1631      -407320.79     -407320.79     -405260.74      633.97009      763343.84      102.05533      102.05533      73.290697      14.200845      468.57822           3725 
      3900   0.95625        301.14483     -407346.18     -407346.18     -405286.26     -1285.5266      763079.58      102.04355      102.04355      73.282238      14.12767       460.48273           3825 
      4000   0.98125        300.24316     -407364.79     -407364.79     -405311.03      1038.8225      762017.21      101.99617      101.99617      73.248215      13.948915      452.57946           3925 
      4100   1.00625        298.33586     -407366.8      -407366.8      -405326.09      319.50818      761532.47      101.97454      101.97454      73.23268       13.775683      444.8465            4025 
      4200   1.03125        300.84927     -407373.93     -407373.93     -405316.02      57.150432      760907.13      101.94662      101.94662      73.212629      14.183298      436.83939           4125 
      4300   1.05625        301.89177     -407374.92     -407374.92     -405309.88      872.55772      760916.11      101.94702      101.94702      73.212917      14.174636      428.88345           4225 
      4400   1.08125        301.74771     -407394.06     -407394.06     -405330.01      578.31183      760532.2       101.92987      101.92987      73.200602      14.083604      421.02901           4325 
      4500   1.10625        300.3686      -407431.03     -407431.03     -405376.42      780.5475       760166.31      101.91352      101.91352      73.188861      13.205191      413.80373           4425 
      4600   1.13125        299.63799     -407477.14     -407477.14     -405427.52      1472.5126      759675.33      101.89158      101.89158      73.173101      13.547457      406.33159           4525 
      4700   1.15625        295.8636      -407481.78     -407481.78     -405457.98     -1105.9452      759418.27      101.88008      101.88008      73.164846      13.874095      398.66142           4625 
      4800   1.18125        297.91909     -407478.27     -407478.27     -405440.41     -583.21862      759128.72      101.86713      101.86713      73.155546      14.159189      390.84881           4725 
      4900   1.20625        302.16112     -407466.4      -407466.4      -405399.52     -35.629858      758225.34      101.82671      101.82671      73.126516      13.713694      383.31335           4825 
      5000   1.23125        303.1778      -407457.64     -407457.64     -405383.81     -303.7572       757508.74      101.79462      101.79462      73.103471      13.719243      375.78475           4925 
      5100   1.25625        303.27634     -407487.38     -407487.38     -405412.87      809.93191      756841.75      101.76473      101.76473      73.082009      13.987985      368.12703           5025 
      5200   1.28125        299.288       -407513.6      -407513.6      -405466.37     -1584.112       756319.13      101.74131      101.74131      73.065183      13.623158      360.67128           5125 
      5300   1.30625        298.09243     -407540.83     -407540.83     -405501.78      1623.3543      755409.39      101.7005       101.7005       73.035876      12.529638      353.8054            5225 
      5400   1.33125        298.9307      -407554.81     -407554.81     -405510.03      665.26047      754897.43      101.67751      101.67751      73.019373      14.10236       346.11622           5325 
      5500   1.35625        300.49586     -407560.98     -407560.98     -405505.49      280.83228      754089.56      101.64123      101.64123      72.993316      14.303423      338.36503           5425 
      5600   1.38125        302.11749     -407571.38     -407571.38     -405504.8       211.3575       753999.85      101.6372       101.6372       72.990421      10.416891      332.75408           5525 
      5700   1.40625        300.69974     -407570.97     -407570.97     -405514.09     -967.33812      753738.68      101.62546      101.62546      72.981993      12.761339      325.6296            5625 
      5800   1.43125        301.31748     -407592.6      -407592.6      -405531.5      -393.43276      753265.97      101.60421      101.60421      72.966732      14.256077      317.86673           5725 
      5900   1.45625        299.77289     -407607.67     -407607.67     -405557.13     -67.408939      752890.15      101.58731      101.58731      72.954596      13.203094      310.53052           5825 
      6000   1.48125        299.35072     -407621.36     -407621.36     -405573.71     -1368.8182      752518.2       101.57058      101.57058      72.94258       12.149931      303.63782           5925 
      6100   1.50625        299.5034      -407628.02     -407628.02     -405579.32      1401.463       751909.46      101.54319      101.54319      72.922906      14.113292      295.9453            6025 
      6200   1.53125        300.18333     -407638.29     -407638.29     -405584.95      174.69796      751116.91      101.5075       101.5075       72.897275      13.901082      288.34104           6125 
      6300   1.55625        299.90537     -407641.32     -407641.32     -405589.87     -109.8772       750746.86      101.49083      101.49083      72.885302      13.934508      280.7395            6225 
      6400   1.58125        301.02777     -407653        -407653        -405593.87     -62.052774      750318.6       101.47152      101.47152      72.87144       14.090779      273.10516           6325 
      6500   1.60625        301.41816     -407664.5      -407664.5      -405602.7       913.62562      749573.63      101.43793      101.43793      72.847315      14.232041      265.44836           6425 
      6600   1.63125        299.43015     -407663.03     -407663.03     -405614.83     -713.4768       749344.49      101.42759      101.42759      72.839891      14.302517      257.79244           6525 
      6700   1.65625        300.25407     -407676.13     -407676.13     -405622.29     -667.9006       748866.12      101.406        101.406        72.824388      14.097167      250.20846           6625 
      6800   1.68125        299.74185     -407672.08     -407672.08     -405621.75      611.88002      748388.46      101.38444      101.38444      72.808901      14.335773      242.58156           6725 
      6900   1.70625        299.16097     -407666.26     -407666.26     -405619.91     -754.04342      748310.94      101.38094      101.38094      72.806387      14.222472      234.9996            6825 
      7000   1.73125        301.02472     -407686.54     -407686.54     -405627.44     -490.79881      747997.06      101.36676      101.36676      72.796206      14.023058      227.47794           6925 
      7100   1.75625        299.28169     -407691.08     -407691.08     -405643.9      -534.47427      747556.34      101.34685      101.34685      72.781906      14.05929       219.95963           7025 
      7200   1.78125        299.09797     -407705.77     -407705.77     -405659.84      1177.8877      747501.12      101.34435      101.34435      72.780114      14.272038      212.40991           7125 
      7300   1.80625        298.71259     -407712.21     -407712.21     -405668.92      564.06897      747152.49      101.3286       101.3286       72.768798      12.104032      205.35725           7225 
      7400   1.83125        298.42822     -407714.56     -407714.56     -405673.22     -602.99907      747180.41      101.32986      101.32986      72.769704      12.776793      198.11272           7325 
      7500   1.85625        298.5413      -407707.55     -407707.55     -405665.43      567.7714       746874.98      101.31605      101.31605      72.759787      14.219583      190.57709           7425 
      7600   1.88125        299.53919     -407703.58     -407703.58     -405654.64     -93.956583      746618.17      101.30444      101.30444      72.751447      14.18604       183.06031           7525 
      7700   1.90625        301.48245     -407724.08     -407724.08     -405661.85      634.29621      746375.41      101.29345      101.29345      72.743561      14.046964      175.57753           7625 
      7800   1.93125        298.33583     -407724.75     -407724.75     -405684.04     -399.82753      746297.71      101.28994      101.28994      72.741037      14.185511      168.08369           7725 
      7900   1.95625        300.0835      -407748.29     -407748.29     -405695.62      345.07855      745993.89      101.27619      101.27619      72.731164      14.227736      160.5954            7825 
      8000   1.98125        298.94729     -407743.78     -407743.78     -405698.89      1353.8545      745869.78      101.27058      101.27058      72.727131      10.495972      153.77301           7925 
      8100   2.00625        300.82766     -407752.78     -407752.78     -405695.02     -1877.6099      745911.49      101.27246      101.27246      72.728486      13.900252      146.30894           8025 
      8200   2.03125        301.61017     -407755.26     -407755.26     -405692.15     -906.78073      745610.9       101.25886      101.25886      72.718716      13.944016      138.84632           8125 
      8300   2.05625        301.20218     -407762.91     -407762.91     -405702.59      513.06224      745506.86      101.25415      101.25415      72.715333      13.829593      131.40357           8225 
      8400   2.08125        298.7747      -407767.84     -407767.84     -405724.13     -586.31071      745370.19      101.24796      101.24796      72.710889      13.604617      123.98998           8325 
      8500   2.10625        299.29295     -407784.38     -407784.38     -405737.12     -481.75012      745467.13      101.25235      101.25235      72.714041      11.791939      116.78911           8425 
      8600   2.13125        299.39998     -407790.73     -407790.73     -405742.74     -605.32163      745291.44      101.24439      101.24439      72.708328      13.645147      109.35895           8525 
      8700   2.15625        299.1427      -407789.95     -407789.95     -405743.72     -925.09763      745139.97      101.23753      101.23753      72.703403      12.001919      102.09111           8625 
      8800   2.18125        299.12982     -407785.89     -407785.89     -405739.75      970.20881      745389.54      101.24884      101.24884      72.711519      12.644003      94.737039           8725 
      8900   2.20625        298.9462      -407779.08     -407779.08     -405734.19      1921.5977      745042.56      101.23312      101.23312      72.700234      12.712179      87.364749           8825 
      9000   2.23125        301.52435     -407798.36     -407798.36     -405735.84     -630.31807      745356.42      101.24734      101.24734      72.710442      11.268196      80.102805           8925 
      9100   2.25625        301.68562     -407818.49     -407818.49     -405754.87     -482.27503      745042.42      101.23312      101.23312      72.70023       12.81912       72.689131           9025 
      9200   2.28125        300.21972     -407839.62     -407839.62     -405786.02     -701.03551      745163.05      101.23858      101.23858      72.704153      12.118713      65.310203           9125 
      9300   2.30625        298.9557      -407854.21     -407854.21     -405809.26      765.69926      745004.03      101.23138      101.23138      72.698981      12.090325      57.913981           9225 
      9400   2.33125        298.38705     -407853.58     -407853.58     -405812.52      446.817        745178.55      101.23928      101.23928      72.704657      12.978607      50.458018           9325 
      9500   2.35625        299.898       -407847.51     -407847.51     -405796.11     -981.28834      745273.08      101.24356      101.24356      72.707732      13.860996      42.966847           9425 
      9600   2.38125        301.13942     -407838.4      -407838.4      -405778.51      833.36575      745390.96      101.2489       101.2489       72.711565      12.843285      35.509995           9525 
      9700   2.40625        301.59511     -407844.82     -407844.82     -405781.81      547.03742      745449.57      101.25155      101.25155      72.71347       14.153584      28.018215           9625 
      9800   2.43125        298.96735     -407853.31     -407853.31     -405808.27      1547.3681      745160.36      101.23846      101.23846      72.704066      14.144825      20.535329           9725 
      9900   2.45625        297.30231     -407868.38     -407868.38     -405834.74     -110.60547      745385.42      101.24865      101.24865      72.711384      14.092908      13.061317           9825 
     10000   2.48125        297.96051     -407889.8      -407889.8      -405851.66      1593.8876      745329.58      101.24612      101.24612      72.709569      13.947696      5.595486            9925 
     10075   2.5            297.9849      -407886.84     -407886.84     -405848.53      1843.0323      745371.46      101.24802      101.24802      72.71093       13.963919      0                  10000 
Loop time of 745.84 on 6 procs for 10000 steps with 52920 atoms

Performance: 0.290 ns/day, 82.871 hours/ns, 13.408 timesteps/s
99.7% CPU use with 6 MPI tasks x 1 OpenMP threads

MPI task timing breakdown:
Section |  min time  |  avg time  |  max time  |%varavg| %total
---------------------------------------------------------------
Pair    | 696.44     | 699.92     | 710.39     |  18.2 | 93.84
Neigh   | 1.388      | 1.4036     | 1.4175     |   0.9 |  0.19
Comm    | 28.612     | 39.075     | 42.57      |  76.8 |  5.24
Output  | 0.65994    | 0.71278    | 0.76503    |   4.3 |  0.10
Modify  | 3.6937     | 3.7367     | 3.7853     |   1.6 |  0.50
Other   |            | 0.9966     |            |       |  0.13

Nlocal:           8820 ave        8828 max        8805 min
Histogram: 1 0 0 0 1 1 0 0 0 3
Nghost:        14322.5 ave       14344 max       14286 min
Histogram: 1 0 0 0 0 0 2 2 0 1
Neighs:              0 ave           0 max           0 min
Histogram: 6 0 0 0 0 0 0 0 0 0
FullNghs:       870209 ave      872176 max      869224 min
Histogram: 2 0 2 1 0 0 0 0 0 1

Total # of neighbors = 5221256
Ave neighs/atom = 98.66319
Neighbor list builds = 29
Dangerous builds = 0

write_restart equil.init
System init for write_restart ...
write_data    equil.data
System init for write_data ...
Total wall time: 0:12:37
