LAMMPS (29 Sep 2021)
  using 1 OpenMP thread(s) per MPI task
Reading restart file ...
  restart file = 29 Sep 2021, LAMMPS = 29 Sep 2021
  restoring atom style atomic from restart
  orthogonal box = (-0.48044563 -0.48608667 0.0000000) to (101.55311 101.55876 618.12600)
  2 by 3 by 16 MPI processor grid
  pair style hybrid/overlay stores no restart info
  446002 atoms
  read_restart CPU = 0.184 seconds
Resetting global fix info from restart file:
  fix style: npt, fix ID: 2

CITE-CITE-CITE-CITE-CITE-CITE-CITE-CITE-CITE-CITE-CITE-CITE-CITE

Your simulation uses code contributions which should be cited:
- @article{cjiang2012
The log file lists these citations in BibTeX format.

CITE-CITE-CITE-CITE-CITE-CITE-CITE-CITE-CITE-CITE-CITE-CITE-CITE

All restart file global fix info was re-assigned
Unused restart file peratom fix info:
  fix style: STORE, fix ID: spatialbins_COMPUTE_STORE
Neighbor list info ...
  update every 1 steps, delay 10 steps, check yes
  max neighbors/atom: 2000, page size: 100000
  master list distance cutoff = 8.28721
  ghost atom cutoff = 8.28721
  binsize = 4.143605, bins = 25 25 150
  3 neighbor lists, perpetual/occasional/extra = 3 0 0
  (1) pair eam/alloy, perpetual, skip from (3)
      attributes: half, newton on
      pair build: skip
      stencil: none
      bin: none
  (2) pair edip/multi, perpetual
      attributes: full, newton on
      pair build: full/bin/atomonly
      stencil: full/bin/3d
      bin: standard
  (3) neighbor class addition, perpetual, half/full from (2)
      attributes: half, newton on
      pair build: halffull/newton
      stencil: none
      bin: none
Setting up Verlet run ...
  Unit style    : metal
  Current step  : 11000078
  Time step     : 0.0001
Per MPI rank memory allocation (min/avg/max) = 4.711 | 11.99 | 17.55 Mbytes
Step Time Temp PotEng E_pair TotEng Press Volume Lx Ly Lz CPULeft 
11000078            0    299.77941   -1974321.6   -1974321.6   -1957039.3   -616.31838      6435927    102.03356    102.04484      618.126            0 
11010000       0.9922    300.10851   -1974286.8   -1974286.8   -1956985.5   -237.65225      6436262     102.0387    102.04501      618.126    30257.593 
11020000       1.9922    299.80286   -1974306.4   -1974306.4   -1957022.7   -317.07492    6435926.1    102.02377    102.05462      618.126     29979.55 
11030000       2.9922    300.17138   -1974287.9   -1974287.9     -1956983    485.54115    6435191.2     102.0212    102.04554      618.126    29676.669 
11040000       3.9922    299.76235   -1974296.3   -1974296.3     -1957015   -153.47336    6435965.7     102.0343    102.04472      618.126    29370.774 
11050000       4.9922    300.07984   -1974300.4   -1974300.4   -1957000.7    51.662766    6434595.7    102.02014    102.03715      618.126    29067.313 
11060000       5.9922    299.72173   -1974320.7   -1974320.7   -1957041.7    -62.49226    6434390.4    102.01424     102.0398      618.126    28763.372 
11070000       6.9922    300.05649   -1974290.1   -1974290.1   -1956991.8    245.12031    6434665.9    102.01303    102.04538      618.126    28460.452 
11080000       7.9922     299.7487   -1974272.5   -1974272.5   -1956991.9   -57.653585    6434772.3    102.02718    102.03291      618.126    28158.145 
11090000       8.9922    299.96408   -1974297.7   -1974297.7   -1957004.7   -65.071755      6435009    102.02275     102.0411      618.126     27854.88 
11100000       9.9922    299.72643   -1974320.4   -1974320.4   -1957041.1   -301.84253    6435407.5    102.03398    102.03618      618.126     27559.58 
11110000      10.9922     299.7021   -1974291.7   -1974291.7   -1957013.9   -298.72491    6433919.9    102.01485    102.03173      618.126    27253.627 
11120000      11.9922    299.89607   -1974300.8   -1974300.8   -1957011.8    54.883308    6435162.6    102.01816    102.04813      618.126    26950.691 
11130000      12.9922    299.95363   -1974301.3   -1974301.3   -1957008.9    344.84262    6434365.2    102.01143    102.04221      618.126    26644.772 
11140000      13.9922    300.07593   -1974284.6   -1974284.6   -1956985.2   -623.34234    6435924.3    102.02868    102.04968      618.126    26338.689 
11150000      14.9922    300.42392   -1974285.2   -1974285.2   -1956965.7   -89.174984    6435159.7    102.02584     102.0404      618.126     26030.89 
11160000      15.9922    299.94074   -1974333.4   -1974333.4   -1957041.7    120.49626    6435360.4    102.02913    102.04028      618.126    25723.912 
11170000      16.9922    299.80833   -1974317.5   -1974317.5   -1957033.5   -41.341671    6435065.6    102.02149    102.04326      618.126    25417.894 
11180000      17.9922    299.90654   -1974300.5   -1974300.5   -1957010.9   -71.088433    6436072.6    102.02437    102.05634      618.126    25111.199 
11190000      18.9922    300.03866   -1974310.8   -1974310.8   -1957013.5    154.70403    6435253.6    102.03394    102.03379      618.126    24805.309 
11200000      19.9922    300.13921   -1974330.1   -1974330.1   -1957027.1    145.79373    6434769.6    102.01358    102.04647      618.126    24499.957 
11210000      20.9922    299.88423   -1974308.3   -1974308.3   -1957019.9    309.29047    6435901.7    102.03215    102.04586      618.126     24194.05 
11220000      21.9922    299.92914   -1974301.6   -1974301.6   -1957010.6    319.95512    6436180.9    102.03249    102.04994      618.126    23888.657 
11230000      22.9922    299.83064   -1974282.4   -1974282.4   -1956997.1   -549.35518    6436826.1    102.03938    102.05327      618.126    23582.328 
11240000      23.9922    299.95844   -1974319.5   -1974319.5   -1957026.9    202.15029    6435788.1     102.0307     102.0455      618.126    23276.652 
11250000      24.9922    299.79687   -1974301.4   -1974301.4   -1957018.1    601.22259    6435842.7    102.02666     102.0504      618.126    22971.211 
11260000      25.9922    299.89291   -1974328.7   -1974328.7   -1957039.8   -147.59274    6436656.9    102.03255    102.05743      618.126    22665.927 
11270000      26.9922    299.96512   -1974327.6   -1974327.6   -1957034.6    -356.5191    6436863.1    102.04561    102.04763      618.126    22359.726 
11280000      27.9922    300.12517   -1974312.3   -1974312.3     -1957010    664.86124      6435280    102.02851    102.03963      618.126    22054.569 
11290000      28.9922     299.9291   -1974303.4   -1974303.4   -1957012.4    228.24447    6435759.7    102.03136    102.04439      618.126     21749.03 
11300000      29.9922    299.71643   -1974312.5   -1974312.5   -1957033.8   -105.48899      6435389    102.02837     102.0415      618.126    21442.499 
11310000      30.9922    299.73087     -1974329     -1974329   -1957049.4   -289.83493    6434609.2    102.01851      102.039      618.126    21135.594 
11320000      31.9922    300.30896   -1974276.5   -1974276.5   -1956963.6    129.12626    6435343.1    102.02626    102.04289      618.126    20829.699 
11330000      32.9922    299.90107   -1974317.1   -1974317.1   -1957027.7   -740.18129      6435549      102.022    102.05041      618.126    20523.289 
11340000      33.9922    299.62886   -1974295.8   -1974295.8   -1957022.1   -142.43591    6434218.1    102.01724    102.03407      618.126    20217.266 
11350000      34.9922    300.03915   -1974352.3   -1974352.3     -1957055     306.8796    6434314.3    102.01719    102.03564      618.126    19910.947 
11360000      35.9922    299.60442   -1974316.3   -1974316.3   -1957044.1    40.674083      6434784    102.01991    102.04037      618.126    19604.029 
11370000      36.9922    299.90031     -1974312     -1974312   -1957022.7   -168.93696    6434074.6    102.01556    102.03347      618.126    19298.369 
11380000      37.9922    299.83388   -1974316.8   -1974316.8   -1957031.3    90.456242    6434763.3    102.01092    102.04903      618.126    18991.936 
11390000      38.9922    299.95182   -1974301.6   -1974301.6   -1957009.3    134.68463    6434836.4    102.01819    102.04292      618.126    18686.107 
11400000      39.9922     299.9156   -1974288.9   -1974288.9   -1956998.7   -69.118057    6434983.8    102.02446    102.03899      618.126     18380.01 
11410000      40.9922    300.06565   -1974310.5   -1974310.5   -1957011.6   -197.65841      6435028    102.01989    102.04426      618.126    18073.585 
11420000      41.9922    300.03673   -1974288.3   -1974288.3   -1956991.2   -20.650658    6434747.8    102.01852    102.04119      618.126    17767.479 
11430000      42.9922    299.75062   -1974303.1   -1974303.1   -1957022.5    -181.3442    6435918.3    102.03208    102.04619      618.126     17461.34 
11440000      43.9922    299.94571   -1974315.3   -1974315.3   -1957023.3    73.463274    6435806.7    102.02095    102.05555      618.126    17155.184 
11450000      44.9922    300.09457   -1974310.5   -1974310.5     -1957010   -66.679962    6436002.5    102.02927    102.05032      618.126    16849.402 
11460000      45.9922    299.87539   -1974347.9   -1974347.9     -1957060    49.742056    6436643.7    102.03049    102.05928      618.126     16543.57 
11470000      46.9922    300.18894   -1974267.7   -1974267.7   -1956961.7    225.93791    6435829.8    102.02665    102.05021      618.126    16237.462 
11480000      47.9922    300.32823   -1974300.3   -1974300.3   -1956986.3    662.38298    6435279.2    102.03221    102.03592      618.126    15931.672 
11490000      48.9922    300.34404   -1974298.7   -1974298.7   -1956983.8   -242.86261    6437025.1    102.05139    102.04442      618.126    15625.934 
11500000      49.9922    300.20451   -1974308.3   -1974308.3   -1957001.5    47.917293    6436617.9    102.03815     102.0512      618.126    15320.147 
11510000      50.9922    300.22823   -1974295.6   -1974295.6   -1956987.4    27.887578    6436299.5     102.0298    102.05451      618.126    15014.382 
11520000      51.9922    299.99488   -1974307.1   -1974307.1   -1957012.4   -148.95305    6435650.7    102.02987    102.04415      618.126    14708.811 
11530000      52.9922    299.90983     -1974338     -1974338   -1957048.2    410.87768    6435903.6     102.0338    102.04423      618.126    14402.751 
11540000      53.9922    299.92801   -1974285.6   -1974285.6   -1956994.7   -130.50576    6436491.1    102.03568    102.05167      618.126    14096.725 
11550000      54.9922    299.86277   -1974286.7   -1974286.7   -1956999.6    454.05403    6435552.1    102.02409    102.04837      618.126    13790.829 
11560000      55.9922     300.1867   -1974326.1   -1974326.1   -1957020.3   -84.260373    6435698.5    102.03315    102.04163      618.126     13484.55 
11570000      56.9922    299.89792   -1974324.4   -1974324.4   -1957035.2   -145.54882    6435810.8    102.02191    102.05465      618.126    13178.768 
11580000      57.9922    300.11403   -1974282.9   -1974282.9   -1956981.3    216.08607    6434823.7    102.01938    102.04153      618.126    12872.684 
11590000      58.9922     300.0871   -1974333.1   -1974333.1     -1957033   -325.19161    6435289.7    102.02294    102.04536      618.126     12566.12 
11600000      59.9922    299.96308   -1974295.1   -1974295.1   -1957002.2    349.38607    6435648.8    102.02925    102.04475      618.126    12260.256 
11610000      60.9922    299.80165   -1974315.1   -1974315.1   -1957031.5   -47.450551    6435554.6    102.02787    102.04463      618.126    11953.818 
11620000      61.9922    300.08202   -1974334.8   -1974334.8     -1957035   -212.79807    6434821.8    102.01117    102.04971      618.126     11647.73 
11630000      62.9922    299.96344   -1974293.7   -1974293.7   -1957000.8    189.26459      6434732    102.01373    102.04573      618.126    11341.545 
11640000      63.9922    299.99829   -1974317.5   -1974317.5   -1957022.6   -98.659846    6435787.6    102.02399     102.0522      618.126    11035.124 
11650000      64.9922    299.79569   -1974303.2   -1974303.2   -1957019.9   -258.77954    6435215.8    102.02505    102.04208      618.126    10728.904 
11660000      65.9922    299.91295   -1974288.8   -1974288.8   -1956998.8    15.258261    6434830.4    102.01842     102.0426      618.126    10422.779 
11670000      66.9922    300.04683   -1974302.9   -1974302.9   -1957005.1   -444.28578    6435483.6    102.03468    102.03669      618.126    10116.446 
11680000      67.9922     300.0177   -1974280.6   -1974280.6   -1956984.6   -196.92514    6435185.8    102.02092    102.04573      618.126    9810.2329 
11690000      68.9922     300.0215     -1974299     -1974299   -1957002.7   -241.51652    6435314.2     102.0236    102.04508      618.126    9503.8839 
11700000      69.9922    299.90037   -1974321.5   -1974321.5   -1957032.2    54.414061    6435430.7     102.0236    102.04694      618.126    9197.6626 
11710000      70.9922    300.22478   -1974292.9   -1974292.9   -1956984.9    107.48064    6435621.1    102.02591    102.04764      618.126    8891.3403 
11720000      71.9922    300.09153   -1974319.7   -1974319.7   -1957019.3    107.10414    6435197.7    102.02637    102.04047      618.126    8584.9011 
11730000      72.9922     299.9492   -1974340.6   -1974340.6   -1957048.4    228.83219    6435586.4    102.02397    102.04903      618.126    8278.3302 
11740000      73.9922    299.98424   -1974296.2   -1974296.2   -1957002.1     379.7131    6436297.6    102.03219    102.05209      618.126    7971.9098 
11750000      74.9922    299.88521   -1974279.2   -1974279.2   -1956990.7    72.372475    6436987.2     102.0388    102.05641      618.126    7665.5798 
11760000      75.9922    299.91819   -1974309.1   -1974309.1   -1957018.8    243.81664    6436895.1    102.03173    102.06202      618.126    7359.1219 
11770000      76.9922    299.83492   -1974318.5   -1974318.5     -1957033    268.59816    6435697.2    102.03153    102.04323      618.126    7052.6141 
11780000      77.9922    300.08486   -1974291.4   -1974291.4   -1956991.5   -331.01748    6436578.7    102.02933    102.05941      618.126    6746.0991 
11790000      78.9922    299.82549   -1974338.9   -1974338.9     -1957054   -264.68045    6436187.5    102.02908    102.05345      618.126    6439.5488 
11800000      79.9922    300.15908   -1974290.3   -1974290.3     -1956986    370.04025    6436008.1    102.02539     102.0543      618.126    6133.1133 
11810000      80.9922    299.91346   -1974295.2   -1974295.2   -1957005.1   -84.473477    6435659.8    102.02682    102.04735      618.126    5826.5985 
11820000      81.9922    300.17302   -1974305.7   -1974305.7   -1957000.6   -115.28212    6435945.5    102.03508    102.04361      618.126    5520.0751 
11830000      82.9922    300.04587   -1974329.5   -1974329.5   -1957031.8   -52.652835    6435955.7    102.03041    102.04845      618.126    5213.6071 
11840000      83.9922    300.21633   -1974300.1   -1974300.1   -1956992.6    364.55064    6436105.1    102.03594    102.04529      618.126    4907.1387 
11850000      84.9922    299.82638     -1974285     -1974285   -1956999.9      -331.87    6435981.2    102.02859    102.05068      618.126    4600.5617 
11860000      85.9922    299.71891   -1974319.9   -1974319.9   -1957041.1    258.54716    6435010.1    102.01725    102.04661      618.126    4294.0173 
11870000      86.9922    299.92766   -1974311.3   -1974311.3   -1957020.4   -335.23546    6435353.5    102.02515    102.04416      618.126    3987.5045 
11880000      87.9922    300.34287   -1974299.5   -1974299.5   -1956984.7   -309.42601    6434748.7    102.01481    102.04491      618.126    3680.9811 
11890000      88.9922    299.99841   -1974318.5   -1974318.5   -1957023.5   -85.321144    6435173.3    102.02144    102.04501      618.126    3374.4491 
11900000      89.9922    300.01621   -1974299.2   -1974299.2   -1957003.2   -7.4398825    6435155.2     102.0246    102.04156      618.126     3067.925 
11910000      90.9922    299.85381   -1974307.4   -1974307.4   -1957020.8    65.217369    6434503.9    102.02396    102.03188      618.126    2761.4071 
11920000      91.9922    299.99235   -1974292.3   -1974292.3   -1956997.7   -652.90493    6436302.3    102.02731    102.05704      618.126    2454.8438 
11930000      92.9922    299.81965   -1974301.2   -1974301.2   -1957016.6    45.429328    6435524.2    102.02773    102.04429      618.126    2148.3017 
11940000      93.9922    300.25541   -1974291.8   -1974291.8     -1956982   -129.64257    6434241.6    102.02259    102.02909      618.126    1841.7571 
11950000      94.9922    299.95752   -1974334.7   -1974334.7   -1957042.1    76.061077    6435020.3    102.02033     102.0437      618.126    1535.1896 
11960000      95.9922    300.15789   -1974281.3   -1974281.3   -1956977.1    299.81783    6435085.7    102.02101    102.04406      618.126    1228.6367 
11970000      96.9922    300.15693   -1974277.6   -1974277.6   -1956973.5   -65.390937    6435360.4    102.02812    102.04129      618.126    922.07718 
11980000      97.9922    300.17677   -1974314.5   -1974314.5   -1957009.2   -39.891265    6435635.8    102.02301    102.05078      618.126    615.51623 
11990000      98.9922    300.31432   -1974290.7   -1974290.7   -1956977.5    951.08699    6434881.7    102.02148    102.04035      618.126    308.95856 
12000000      99.9922    299.63135   -1974306.7   -1974306.7   -1957032.9     7.320803    6436195.9    102.02808    102.05458      618.126    2.3912635 
12000078          100    299.79905   -1974308.5   -1974308.5     -1957025   -371.60598      6436206    102.02806    102.05477      618.126            0 
Loop time of 30657.2 on 96 procs for 1000000 steps with 446002 atoms

Performance: 0.282 ns/day, 85.159 hours/ns, 32.619 timesteps/s
100.0% CPU use with 96 MPI tasks x 1 OpenMP threads

MPI task timing breakdown:
Section |  min time  |  avg time  |  max time  |%varavg| %total
---------------------------------------------------------------
Pair    | 6388.8     | 20467      | 29507      |4242.1 | 66.76
Neigh   | 0.0062241  | 27.124     | 40.566     | 230.3 |  0.09
Comm    | 190.11     | 3128.7     | 7481.4     |4493.6 | 10.21
Output  | 1.9509     | 1.9524     | 1.9684     |   0.1 |  0.01
Modify  | 505.87     | 6951.1     | 23829      |8078.0 | 22.67
Other   |            | 81.38      |            |       |  0.27

Nlocal:        4645.85 ave        6293 max           0 min
Histogram: 12 0 0 0 0 0 12 24 12 36
Nghost:        8378.50 ave       11436 max           3 min
Histogram: 12 0 0 0 0 7 5 0 56 16
Neighs:         0.00000 ave           0 max           0 min
Histogram: 96 0 0 0 0 0 0 0 0 0
FullNghs:      882825.0 ave 1.34515e+06 max           0 min
Histogram: 12 0 0 0 12 12 12 12 12 24

Total # of neighbors = 84751168
Ave neighs/atom = 190.02419
Neighbor list builds = 1119
Dangerous builds = 0
System init for write_restart ...
System init for write_data ...
Total wall time: 8:30:58
