LAMMPS (29 Sep 2021)
  using 1 OpenMP thread(s) per MPI task
Reading restart file ...
  restart file = 29 Sep 2021, LAMMPS = 29 Sep 2021
  restoring atom style atomic from restart
  orthogonal box = (-0.29659248 -0.26712853 0.0000000) to (101.36926 101.33980 591.76100)
  3 by 2 by 16 MPI processor grid
  pair style hybrid/overlay stores no restart info
  443844 atoms
  read_restart CPU = 0.227 seconds
Resetting global fix info from restart file:
  fix style: npt, fix ID: 2

CITE-CITE-CITE-CITE-CITE-CITE-CITE-CITE-CITE-CITE-CITE-CITE-CITE

Your simulation uses code contributions which should be cited:
- @article{cjiang2012
The log file lists these citations in BibTeX format.

CITE-CITE-CITE-CITE-CITE-CITE-CITE-CITE-CITE-CITE-CITE-CITE-CITE

All restart file global fix info was re-assigned
Unused restart file peratom fix info:
  fix style: STORE, fix ID: spatialbins_COMPUTE_STORE
Neighbor list info ...
  update every 1 steps, delay 10 steps, check yes
  max neighbors/atom: 2000, page size: 100000
  master list distance cutoff = 8.28721
  ghost atom cutoff = 8.28721
  binsize = 4.143605, bins = 25 25 143
  3 neighbor lists, perpetual/occasional/extra = 3 0 0
  (1) pair eam/alloy, perpetual, skip from (3)
      attributes: half, newton on
      pair build: skip
      stencil: none
      bin: none
  (2) pair edip/multi, perpetual
      attributes: full, newton on
      pair build: full/bin/atomonly
      stencil: full/bin/3d
      bin: standard
  (3) neighbor class addition, perpetual, half/full from (2)
      attributes: half, newton on
      pair build: halffull/newton
      stencil: none
      bin: none
Setting up Verlet run ...
  Unit style    : metal
  Current step  : 11000056
  Time step     : 0.0001
Per MPI rank memory allocation (min/avg/max) = 5.193 | 11.77 | 17.24 Mbytes
Step Time Temp PotEng E_pair TotEng Press Volume Lx Ly Lz CPULeft 
11000056            0     300.2673   -1922429.7   -1922429.7     -1905203   -47.959798    6112864.4    101.66585    101.60693      591.761            0 
11010000       0.9944    300.25141   -1922443.4   -1922443.4   -1905217.6   -53.930136    6112590.9    101.66238    101.60585      591.761    34241.926 
11020000       1.9944    300.21422     -1922474     -1922474   -1905250.4   -504.14766      6112323    101.66439    101.59939      591.761    33944.093 
11030000       2.9944    299.90919   -1922489.1   -1922489.1     -1905283    209.95337      6111977    101.65391    101.60411      591.761    33624.111 
11040000       3.9944    299.85006   -1922475.6   -1922475.6   -1905272.8    166.12894    6111771.7    101.66222    101.59239      591.761    33280.147 
11050000       4.9944    300.02904     -1922441     -1922441     -1905228    228.87121    6112545.6    101.66535    101.60213      591.761    32932.287 
11060000       5.9944    299.79531   -1922450.3   -1922450.3   -1905250.7   -19.090047    6112885.2    101.66627    101.60686      591.761    32583.652 
11070000       6.9944    299.86467   -1922490.4   -1922490.4   -1905286.8    -183.6591    6111159.5    101.65725    101.58718      591.761     32232.23 
11080000       7.9944    299.96434   -1922478.3   -1922478.3     -1905269   -262.11968    6111820.8    101.66215    101.59328      591.761    31884.295 
11090000       8.9944    300.07375   -1922475.3   -1922475.3   -1905259.8   -170.38393    6111876.4    101.66181    101.59455      591.761    31542.532 
11100000       9.9944    300.34318   -1922487.2   -1922487.2   -1905256.2   -129.42644    6110993.1    101.65219    101.58948      591.761     31203.75 
11110000      10.9944    299.83729   -1922484.4   -1922484.4   -1905282.4     132.9836    6111213.7    101.65474    101.59059      591.761    30856.388 
11120000      11.9944    299.71128   -1922464.1   -1922464.1   -1905269.3    235.75854    6111580.1    101.65949    101.59193      591.761    30506.948 
11130000      12.9944    299.85182   -1922482.9   -1922482.9   -1905280.1    296.12137    6111053.2    101.64777    101.59489      591.761    30158.542 
11140000      13.9944    300.09742   -1922465.4   -1922465.4   -1905248.5   -140.22374    6111504.9    101.65338    101.59679      591.761     29809.94 
11150000      14.9944    299.86084   -1922471.6   -1922471.6   -1905268.3   -1062.1072      6113018    101.67675    101.59858      591.761    29459.816 
11160000      15.9944    299.76228   -1922453.2   -1922453.2   -1905255.4    50.938457    6112568.7    101.66513    101.60274      591.761    29111.521 
11170000      16.9944      300.146   -1922474.3   -1922474.3   -1905254.5    374.93609    6111673.7    101.66227    101.59072      591.761     28763.66 
11180000      17.9944     300.0665   -1922480.1   -1922480.1   -1905264.9   -588.11056    6111498.8    101.65831    101.59177      591.761    28418.304 
11190000      18.9944    300.10641   -1922438.5   -1922438.5   -1905221.1    239.94543    6111689.2      101.656    101.59724      591.761     28071.92 
11200000      19.9944    299.84081   -1922454.2   -1922454.2     -1905252    4.4113849    6111344.5    101.65442    101.59309      591.761    27725.752 
11210000      20.9944    300.01326   -1922438.2   -1922438.2   -1905226.1      426.131    6111618.1    101.66394    101.58812      591.761    27378.971 
11220000      21.9944    300.06213   -1922486.5   -1922486.5   -1905271.5    381.34149    6111061.8    101.64927    101.59353      591.761    27031.934 
11230000      22.9944    299.81183   -1922476.4   -1922476.4   -1905275.8   -25.771035    6111807.9     101.6618    101.59341      591.761    26684.507 
11240000      23.9944    299.93143   -1922484.3   -1922484.3   -1905276.9    188.73999    6112258.8    101.65487    101.60784      591.761    26337.639 
11250000      24.9944    299.92519     -1922479     -1922479   -1905271.9   -50.822204    6111908.7    101.66618    101.59072      591.761    25991.902 
11260000      25.9944    300.17165   -1922499.1   -1922499.1   -1905277.9    313.21607    6112092.3    101.66404     101.5959      591.761     25646.45 
11270000      26.9944    300.23153   -1922457.1   -1922457.1   -1905232.4   -654.39692    6111563.6    101.65358    101.59757      591.761    25300.829 
11280000      27.9944    299.71491   -1922499.7   -1922499.7   -1905304.7    66.617987      6111527    101.65154      101.599      591.761    24955.002 
11290000      28.9944    299.97077   -1922434.9   -1922434.9   -1905225.3    -358.1339    6112517.8    101.65495    101.61206      591.761    24610.381 
11300000      29.9944    300.16961   -1922437.8   -1922437.8   -1905216.8   -234.13134    6111284.4    101.65603    101.59047      591.761    24265.072 
11310000      30.9944    300.14094   -1922445.3   -1922445.3   -1905225.9    458.67206    6111741.6    101.65345    101.60066      591.761    23918.885 
11320000      31.9944    300.09873     -1922455     -1922455   -1905237.9   -92.005037    6112423.8     101.6566    101.60885      591.761     23572.39 
11330000      32.9944    299.99258   -1922486.7   -1922486.7   -1905275.8    30.281502    6111181.8    101.65286    101.59194      591.761    23225.331 
11340000      33.9944    300.02006   -1922467.9   -1922467.9   -1905255.4    129.56635    6111382.9    101.65086    101.59729      591.761    22878.641 
11350000      34.9944    300.09998   -1922474.6   -1922474.6   -1905257.5    63.335643    6111640.2    101.65996    101.59247      591.761    22532.348 
11360000      35.9944    300.07623   -1922457.6   -1922457.6   -1905241.8   -56.046055    6111993.7    101.66298    101.59532      591.761    22186.584 
11370000      36.9944    300.09132   -1922473.2   -1922473.2   -1905256.6   -31.709708    6110965.2    101.65239    101.58881      591.761    21839.905 
11380000      37.9944    300.19412   -1922498.3   -1922498.3   -1905275.8   -257.70637    6111934.9    101.65929    101.59803      591.761    21493.654 
11390000      38.9944    300.01432   -1922444.2   -1922444.2     -1905232   -116.87411    6111940.6    101.66688    101.59054      591.761    21147.336 
11400000      39.9944    299.70829   -1922469.3   -1922469.3   -1905274.7    203.01399    6111832.5    101.65899    101.59663      591.761    20800.323 
11410000      40.9944    300.00068   -1922461.5   -1922461.5   -1905250.1    135.03591    6111291.1    101.65402     101.5926      591.761    20452.815 
11420000      41.9944    299.82194   -1922449.8   -1922449.8   -1905248.7   -48.427701    6112424.1    101.66493    101.60053      591.761    20106.087 
11430000      42.9944    299.82312   -1922491.7   -1922491.7   -1905290.5   -143.62637    6111288.4    101.66465    101.58194      591.761    19759.316 
11440000      43.9944    300.02618   -1922441.4   -1922441.4   -1905228.5   -322.23428    6111502.3    101.66145    101.58868      591.761    19412.673 
11450000      44.9944    300.33598   -1922456.1   -1922456.1   -1905225.4   -59.862777      6112292    101.65921    101.60405      591.761    19066.358 
11460000      45.9944     300.0029     -1922493     -1922493   -1905281.5   -143.93384    6111101.2    101.66162    101.58185      591.761    18720.529 
11470000      46.9944    300.05321   -1922458.7   -1922458.7   -1905244.3    625.03923    6112115.8    101.66005    101.60029      591.761    18374.521 
11480000      47.9944    299.98911   -1922464.2   -1922464.2   -1905253.5   -35.188646    6112539.6    101.65948     101.6079      591.761     18029.53 
11490000      48.9944    300.15651   -1922507.6   -1922507.6   -1905287.3   -119.84366    6111846.4    101.65438    101.60147      591.761    17683.005 
11500000      49.9944    299.90246   -1922464.1   -1922464.1   -1905258.3     220.9761      6111246    101.65925    101.58663      591.761    17336.416 
11510000      50.9944    299.90001   -1922483.8   -1922483.8   -1905278.2    164.25824      6112073    101.66267    101.59695      591.761    16989.773 
11520000      51.9944    300.21125   -1922468.5   -1922468.5     -1905245   -103.61588    6111189.1    101.65345    101.59148      591.761    16643.353 
11530000      52.9944    300.16635   -1922444.9   -1922444.9     -1905224    306.24057    6111774.5    101.66119    101.59347      591.761    16296.953 
11540000      53.9944     300.0476   -1922464.2   -1922464.2   -1905250.1   -96.883847    6111354.3    101.65753    101.59015      591.761    15950.147 
11550000      54.9944     299.9725   -1922493.3   -1922493.3   -1905283.5     198.8782    6111509.8    101.65906     101.5912      591.761    15603.272 
11560000      55.9944    299.94942   -1922443.2   -1922443.2   -1905234.7    369.48177    6111017.4    101.65243    101.58963      591.761    15256.471 
11570000      56.9944    300.01917   -1922482.9   -1922482.9   -1905270.5   -432.25613    6111828.4    101.65707    101.59849      591.761    14909.665 
11580000      57.9944    299.86879   -1922486.6   -1922486.6   -1905282.8   -338.40025    6112318.3    101.65715    101.60655      591.761    14562.856 
11590000      58.9944    299.99686   -1922485.7   -1922485.7   -1905274.5   -295.97097    6111888.8    101.65416     101.6024      591.761    14216.265 
11600000      59.9944    299.79418   -1922448.6   -1922448.6     -1905249    137.52828    6111229.8      101.657     101.5886      591.761    13869.114 
11610000      60.9944    300.26788   -1922444.6   -1922444.6   -1905217.8    52.878503    6111396.8    101.65988     101.5885      591.761    13522.434 
11620000      61.9944    300.07059     -1922481     -1922481   -1905265.6    23.305034      6111229    101.65865    101.58694      591.761    13175.661 
11630000      62.9944    299.82199   -1922486.3   -1922486.3   -1905285.2    104.77971    6111001.8    101.64632    101.59549      591.761    12828.826 
11640000      63.9944    299.98145   -1922438.6   -1922438.6   -1905228.3   -226.19428    6111824.3    101.66398    101.59151      591.761    12481.968 
11650000      64.9944    300.16776   -1922482.6   -1922482.6   -1905261.6    408.28433    6110944.9    101.64834    101.59252      591.761      12134.8 
11660000      65.9944     299.9957   -1922488.3   -1922488.3   -1905277.2    344.06769    6110914.4    101.65817    101.58219      591.761    11787.898 
11670000      66.9944    299.91428   -1922489.8   -1922489.8   -1905283.3    -317.5104      6111125    101.65533    101.58853      591.761    11440.628 
11680000      67.9944    300.18898   -1922448.9   -1922448.9   -1905226.7    131.97917    6110864.4    101.65584    101.58369      591.761    11093.648 
11690000      68.9944    299.77529   -1922458.2   -1922458.2   -1905259.7   -251.88064    6111758.6    101.65762    101.59677      591.761    10746.764 
11700000      69.9944    300.13177   -1922470.6   -1922470.6   -1905251.7   -328.23082    6112278.7    101.66736    101.59569      591.761    10400.065 
11710000      70.9944    299.82589   -1922485.9   -1922485.9   -1905284.5    174.92896    6111335.6    101.66495    101.58241      591.761    10053.406 
11720000      71.9944    300.23295   -1922460.4   -1922460.4   -1905235.7    5.7021194    6111939.7    101.65612    101.60128      591.761    9706.9243 
11730000      72.9944    299.95914   -1922509.8   -1922509.8   -1905300.7   -270.78322    6111685.6    101.66441    101.58878      591.761    9360.3195 
11740000      73.9944    300.07712   -1922489.8   -1922489.8     -1905274   -210.11521    6112003.4    101.66033    101.59814      591.761    9013.7199 
11750000      74.9944    299.89447   -1922460.6   -1922460.6   -1905255.3    461.78493    6111760.9    101.66533    101.58911      591.761    8667.1136 
11760000      75.9944    299.89869   -1922483.7   -1922483.7   -1905278.1   -58.395594    6111817.8    101.66268     101.5927      591.761    8320.7306 
11770000      76.9944    300.23268   -1922451.1   -1922451.1   -1905226.4   -16.833473    6111918.1    101.66204    101.59501      591.761    7974.1261 
11780000      77.9944    299.93938   -1922459.4   -1922459.4   -1905251.6    300.90641    6111659.1    101.65461    101.59813      591.761    7627.5838 
11790000      78.9944    299.74773   -1922474.7   -1922474.7   -1905277.8    44.841106      6111731    101.66301    101.59092      591.761    7280.9481 
11800000      79.9944    300.09949   -1922481.6   -1922481.6   -1905264.5    252.99056    6111391.7    101.65667    101.59163      591.761    6934.5123 
11810000      80.9944     299.9317   -1922492.7   -1922492.7   -1905285.3    245.14051    6112025.6    101.66286    101.59598      591.761    6588.1261 
11820000      81.9944    300.17622     -1922456     -1922456   -1905234.5    43.866611    6112532.1    101.66392    101.60334      591.761    6241.6673 
11830000      82.9944    300.14272   -1922495.7   -1922495.7   -1905276.1   -470.19082    6111787.4    101.66322    101.59166      591.761    5895.1734 
11840000      83.9944    299.85714   -1922477.5   -1922477.5   -1905274.3    101.30443    6112050.9    101.66024    101.59902      591.761     5548.567 
11850000      84.9944     300.0694   -1922492.5   -1922492.5   -1905277.2   -210.75398    6111486.7    101.66244    101.58743      591.761    5201.9365 
11860000      85.9944    299.81906   -1922452.3   -1922452.3   -1905251.3   -252.02112    6112394.9    101.66927     101.5957      591.761    4855.3125 
11870000      86.9944    300.00312     -1922507     -1922507   -1905295.5   -101.19639    6111359.1    101.65572    101.59204      591.761    4508.6525 
11880000      87.9944    300.29042   -1922427.6   -1922427.6   -1905199.6    4.0475985    6111847.8    101.65532    101.60056      591.761    4161.9641 
11890000      88.9944    299.96864   -1922460.2   -1922460.2   -1905250.7    446.83986    6112019.5    101.65778    101.60095      591.761    3815.3067 
11900000      89.9944    300.16997   -1922458.2   -1922458.2   -1905237.1   -138.04305    6112221.4    101.66904    101.59305      591.761    3468.6363 
11910000      90.9944    300.16813     -1922476     -1922476     -1905255    68.158933    6111864.3    101.65674     101.5994      591.761    3121.9797 
11920000      91.9944    300.27898   -1922458.3   -1922458.3   -1905230.9   -366.18899    6111501.8    101.65518    101.59495      591.761      2775.32 
11930000      92.9944    299.85102   -1922493.1   -1922493.1   -1905290.3   -143.40888    6111604.4    101.65501    101.59681      591.761     2428.648 
11940000      93.9944     300.2134   -1922471.7   -1922471.7   -1905248.1    -558.9978    6112191.1    101.66438    101.59721      591.761    2081.9604 
11950000      94.9944    299.75985     -1922480     -1922480   -1905282.4   -396.40776    6111751.8    101.66226    101.59203      591.761    1735.2579 
11960000      95.9944     300.1601   -1922477.9   -1922477.9   -1905257.4    391.24297    6111007.3    101.65812    101.58378      591.761    1388.6036 
11970000      96.9944    300.11334   -1922453.4   -1922453.4   -1905235.5    295.28178    6111564.7    101.65663    101.59454      591.761    1041.9318 
11980000      97.9944    299.96419   -1922431.5   -1922431.5   -1905222.2   -287.02085    6111716.9    101.65747    101.59623      591.761    695.26986 
11990000      98.9944    300.24558   -1922450.5   -1922450.5   -1905225.1    50.789126    6112193.4    101.66464    101.59698      591.761     348.6061 
12000000      99.9944    299.84711   -1922465.1   -1922465.1   -1905262.5   -161.40497      6112533    101.66195    101.60532      591.761     1.941301 
12000056          100     299.8563   -1922459.8   -1922459.8   -1905256.7    652.51508    6111526.8    101.65484     101.5957      591.761            0 
Loop time of 34666.1 on 96 procs for 1000000 steps with 443844 atoms

Performance: 0.249 ns/day, 96.295 hours/ns, 28.847 timesteps/s
100.0% CPU use with 96 MPI tasks x 1 OpenMP threads

MPI task timing breakdown:
Section |  min time  |  avg time  |  max time  |%varavg| %total
---------------------------------------------------------------
Pair    | 5521.4     | 19687      | 33636      |4834.2 | 56.79
Neigh   | 1.124      | 26.53      | 37.438     | 210.9 |  0.08
Comm    | 448.63     | 7576.8     | 28274      |10509.4 | 21.86
Output  | 1.9665     | 1.968      | 1.9972     |   0.2 |  0.01
Modify  | 484.92     | 7298       | 12478      |6064.6 | 21.05
Other   |            | 76.13      |            |       |  0.22

Nlocal:        4623.38 ave        6099 max         379 min
Histogram: 12 0 0 0 0 0 12 24 12 36
Nghost:        8650.34 ave       10880 max        3734 min
Histogram: 12 0 0 0 0 0 20 33 11 20
Neighs:         0.00000 ave           0 max           0 min
Histogram: 96 0 0 0 0 0 0 0 0 0
FullNghs:      874923.0 ave 1.26996e+06 max       20798 min
Histogram: 12 0 0 0 0 13 23 0 24 24

Total # of neighbors = 83992582
Ave neighs/atom = 189.23897
Neighbor list builds = 1117
Dangerous builds = 0
System init for write_restart ...
System init for write_data ...
Total wall time: 9:37:47
