LAMMPS (29 Sep 2021)
  using 1 OpenMP thread(s) per MPI task
Reading restart file ...
  restart file = 29 Sep 2021, LAMMPS = 29 Sep 2021
  restoring atom style atomic from restart
  orthogonal box = (-0.051868213 -0.21977169 0.0000000) to (101.85093 101.51884 615.91251)
  3 by 2 by 16 MPI processor grid
  pair style hybrid/overlay stores no restart info
  520712 atoms
  read_restart CPU = 0.221 seconds
Resetting global fix info from restart file:
  fix style: npt, fix ID: 2

CITE-CITE-CITE-CITE-CITE-CITE-CITE-CITE-CITE-CITE-CITE-CITE-CITE

Your simulation uses code contributions which should be cited:
- @article{cjiang2012
The log file lists these citations in BibTeX format.

CITE-CITE-CITE-CITE-CITE-CITE-CITE-CITE-CITE-CITE-CITE-CITE-CITE

All restart file global fix info was re-assigned
Unused restart file peratom fix info:
  fix style: STORE, fix ID: spatialbins_COMPUTE_STORE
Neighbor list info ...
  update every 1 steps, delay 10 steps, check yes
  max neighbors/atom: 2000, page size: 100000
  master list distance cutoff = 8.28721
  ghost atom cutoff = 8.28721
  binsize = 4.143605, bins = 25 25 149
  3 neighbor lists, perpetual/occasional/extra = 3 0 0
  (1) pair eam/alloy, perpetual, skip from (3)
      attributes: half, newton on
      pair build: skip
      stencil: none
      bin: none
  (2) pair edip/multi, perpetual
      attributes: full, newton on
      pair build: full/bin/atomonly
      stencil: full/bin/3d
      bin: standard
  (3) neighbor class addition, perpetual, half/full from (2)
      attributes: half, newton on
      pair build: halffull/newton
      stencil: none
      bin: none
Setting up Verlet run ...
  Unit style    : metal
  Current step  : 11000350
  Time step     : 0.00025
Per MPI rank memory allocation (min/avg/max) = 5.647 | 13.19 | 17.64 Mbytes
Step Time Temp PotEng E_pair TotEng Press Volume Lx Ly Lz CPULeft 
11000350            0    299.91111   -2461466.2   -2461466.2     -2441280   -42.222586    6385441.7     101.9028    101.73861    615.91251            0 
11010000       2.4125    300.21799   -2461460.6   -2461460.6   -2441253.8    32.880168    6385447.9     101.9004     101.7411    615.91251    88393.728 
11020000       4.9125     299.8847   -2461476.2   -2461476.2   -2441291.8    181.54665    6384555.3    101.89579    101.73148    615.91251    87540.265 
11030000       7.4125    299.74323   -2461449.9   -2461449.9     -2441275    348.68247    6383933.2    101.89124    101.72612    615.91251    86661.508 
11040000       9.9125    300.19444     -2461477     -2461477   -2441271.8   -99.253079    6384370.1    101.89453    101.72979    615.91251    85799.536 
11050000      12.4125    299.91044   -2461473.4   -2461473.4   -2441287.3    164.73649    6383540.6    101.88185    101.72924    615.91251    84912.114 
11060000      14.9125    300.15622   -2461478.9   -2461478.9   -2441276.2   -371.39112    6384202.2    101.89807    101.72359    615.91251    84034.061 
11070000      17.4125    300.00439   -2461456.7   -2461456.7   -2441264.3    45.514726    6384225.2    101.89002    101.73199    615.91251    83162.094 
11080000      19.9125    300.31155   -2461500.5   -2461500.5   -2441287.3    485.97029    6384130.4    101.89447    101.72604    615.91251    82280.804 
11090000      22.4125    299.86908   -2461445.4   -2461445.4     -2441262   -188.68119    6385279.8     101.9049    101.73393    615.91251    81384.282 
11100000      24.9125    300.16514   -2461460.5   -2461460.5   -2441257.3    119.05625    6385164.6    101.89633    101.74065    615.91251    80490.929 
11110000      27.4125    300.14736   -2461491.8   -2461491.8   -2441289.8   -166.47605    6384573.5    101.90247    101.72511    615.91251    79591.642 
11120000      29.9125    299.60491   -2461446.1   -2461446.1   -2441280.5    43.535755    6385014.3     101.8996      101.735    615.91251    78693.634 
11130000      32.4125    299.67307   -2461446.6   -2461446.6   -2441276.4    33.602745    6384622.6    101.89904    101.72931    615.91251    77800.345 
11140000      34.9125    300.16238   -2461472.6   -2461472.6   -2441269.6   -101.89952      6384729    101.90263    101.72742    615.91251    76907.213 
11150000      37.4125    300.09924   -2461462.4   -2461462.4   -2441263.6    276.40233    6383823.1    101.88858    101.72702    615.91251    76017.517 
11160000      39.9125    299.33759   -2461448.9   -2461448.9   -2441301.3    440.67557    6383338.5    101.89058     101.7173    615.91251    75128.127 
11170000      42.4125    300.10166     -2461460     -2461460     -2441261    -209.7152    6384378.4    101.89121    101.73324    615.91251    74239.135 
11180000      44.9125    300.34672   -2461434.7   -2461434.7   -2441219.2   -418.97109    6383901.4    101.88882    101.72803    615.91251    73349.955 
11190000      47.4125    300.05407   -2461471.6   -2461471.6   -2441275.8   -126.59234    6384540.3    101.90082    101.72622    615.91251     72461.55 
11200000      49.9125    300.35696   -2461482.8   -2461482.8   -2441266.6    28.566074    6384757.8    101.89772    101.73279    615.91251    71567.902 
11210000      52.4125    300.23823   -2461462.9   -2461462.9   -2441254.7   -113.42214    6384401.5    101.89349    101.73134    615.91251    70672.523 
11220000      54.9125    300.76802   -2461472.3   -2461472.3   -2441228.4    3.1433651    6384352.9     101.8899    101.73415    615.91251     69776.46 
11230000      57.4125    299.57905     -2461465     -2461465   -2441301.1   -108.29477    6385852.6    101.90674    101.74123    615.91251    68882.425 
11240000      59.9125    300.07748   -2461483.9   -2461483.9   -2441286.6   -315.64993    6384703.6     101.8956    101.73404    615.91251    67989.013 
11250000      62.4125    299.89001   -2461462.8   -2461462.8   -2441278.1    -222.7221    6384279.6    101.88855    101.73432    615.91251     67094.29 
11260000      64.9125     299.3945   -2461415.9   -2461415.9   -2441264.5   -302.97666    6384162.6    101.88987    101.73114    615.91251    66198.951 
11270000      67.4125     299.9106   -2461469.9   -2461469.9   -2441283.8    275.99042    6384433.2    101.89689    101.72844    615.91251    65303.742 
11280000      69.9125    300.36485   -2461459.3   -2461459.3   -2441242.6   -286.76237    6384339.6    101.88798    101.73585    615.91251    64412.339 
11290000      72.4125     299.8357   -2461467.5   -2461467.5   -2441286.4   -165.29634      6383942    101.88938    101.72811    615.91251    63520.285 
11300000      74.9125    300.14259   -2461473.5   -2461473.5   -2441271.7    65.993639      6383833    101.88969    101.72607    615.91251    62627.178 
11310000      77.4125    299.64171   -2461469.6   -2461469.6   -2441301.6    333.74721      6384091    101.89593    101.72395    615.91251    61735.392 
11320000      79.9125    300.10463     -2461469     -2461469   -2441269.8    29.423185    6385318.4    101.90705    101.73241    615.91251    60842.508 
11330000      82.4125    299.56238   -2461434.3   -2461434.3   -2441271.6    159.83384    6384257.5    101.89667    101.72586    615.91251    59949.832 
11340000      84.9125    300.03766   -2461446.1   -2461446.1   -2441251.4   -59.754042    6384636.5    101.89335    101.73521    615.91251    59055.062 
11350000      87.4125    299.97965     -2461467     -2461467   -2441276.2   -106.04152    6385207.5    101.90744    101.73025    615.91251    58159.118 
11360000      89.9125    299.51596   -2461471.1   -2461471.1   -2441311.5   -224.75712    6384589.7    101.89543    101.73239    615.91251    57263.525 
11370000      92.4125    299.74779   -2461462.1   -2461462.1   -2441286.9   -285.53235      6384748     101.8921    101.73824    615.91251    56368.627 
11380000      94.9125    300.04888   -2461460.1   -2461460.1   -2441264.7    99.059317    6384455.7    101.89406    101.73162    615.91251    55475.752 
11390000      97.4125    300.02259   -2461491.6   -2461491.6   -2441297.9   -443.86934    6384697.9    101.89273    101.73681    615.91251    54583.249 
11400000      99.9125    300.34338   -2461445.1   -2461445.1   -2441229.9   -200.64567    6384225.5    101.88673    101.73528    615.91251    53690.544 
11410000     102.4125     300.2194   -2461433.2   -2461433.2   -2441226.2    428.75476    6383788.1    101.87985    101.73518    615.91251    52797.727 
11420000     104.9125    299.90493   -2461479.2   -2461479.2   -2441293.5   -183.40403    6384244.5    101.89033    101.73199    615.91251     51904.92 
11430000     107.4125    300.28488   -2461481.4   -2461481.4   -2441270.1   -39.285221    6383966.2    101.89011    101.72777    615.91251    51011.544 
11440000     109.9125    300.63634     -2461502     -2461502     -2441267    151.24216    6384046.5    101.89439    101.72477    615.91251    50118.633 
11450000     112.4125    300.15256   -2461475.1   -2461475.1   -2441272.7    124.18671    6385437.7    101.90415     101.7372    615.91251    49223.693 
11460000     114.9125    299.90585   -2461443.4   -2461443.4   -2441257.6    254.78218    6384429.6    101.89522    101.73005    615.91251    48328.628 
11470000     117.4125    300.13229   -2461451.7   -2461451.7   -2441250.7    1.8710346      6384990     101.8948     101.7394    615.91251    47433.924 
11480000     119.9125    300.04421   -2461442.2   -2461442.2   -2441247.1    174.46976    6384634.9    101.88773     101.7408    615.91251    46539.217 
11490000     122.4125    300.12271     -2461489     -2461489   -2441288.6    -127.7931    6383935.7    101.89107    101.72632    615.91251    45644.873 
11500000     124.9125    299.83573   -2461449.2   -2461449.2   -2441268.1   -313.88669    6384087.1    101.88489    101.73491    615.91251    44751.165 
11510000     127.4125     299.9984   -2461442.6   -2461442.6   -2441250.5   -53.201279    6384222.7    101.88892    101.73305    615.91251    43857.299 
11520000     129.9125    300.03287     -2461466     -2461466   -2441271.7    269.21935    6383577.4    101.88417    101.72751    615.91251     42963.01 
11530000     132.4125    299.94181   -2461457.3   -2461457.3     -2441269   -223.68399    6383763.9     101.8837    101.73095    615.91251     42069.23 
11540000     134.9125    299.99215   -2461483.9   -2461483.9   -2441292.3    125.89521    6384118.7    101.88955    101.73076    615.91251     41175.11 
11550000     137.4125    299.34647   -2461457.5   -2461457.5   -2441309.3    -5.166268    6384241.3    101.88758    101.73468    615.91251    40280.653 
11560000     139.9125    300.00515   -2461464.5   -2461464.5     -2441272   -85.831787    6384468.8    101.89449    101.73141    615.91251    39386.228 
11570000     142.4125    299.88097   -2461472.9   -2461472.9   -2441288.8    219.61501    6384710.2    101.88955    101.74019    615.91251    38491.885 
11580000     144.9125    300.24484   -2461460.2   -2461460.2   -2441251.6    134.98597    6384747.3     101.8931    101.73723    615.91251    37597.281 
11590000     147.4125    299.34963     -2461450     -2461450   -2441301.6    464.06835    6383928.8    101.89318    101.72411    615.91251     36702.31 
11600000     149.9125    299.80586   -2461437.3   -2461437.3   -2441258.2   -116.44099    6384723.9     101.9032    101.72678    615.91251    35807.845 
11610000     152.4125    300.24152   -2461460.1   -2461460.1   -2441251.7    139.82367    6383648.1    101.88597    101.72683    615.91251    34913.521 
11620000     154.9125    299.75333   -2461474.9   -2461474.9   -2441299.4   -71.433205    6384144.4    101.88987    101.73085    615.91251    34019.398 
11630000     157.4125    300.13658   -2461474.5   -2461474.5   -2441273.1   -45.590943    6383680.6     101.8868    101.72653    615.91251    33125.383 
11640000     159.9125    299.62679   -2461443.9   -2461443.9   -2441276.9    121.29007    6383836.7    101.88857    101.72724    615.91251    32230.976 
11650000     162.4125     299.8878   -2461433.7   -2461433.7   -2441249.1   -192.59681    6384292.7    101.89909    101.72401    615.91251    31336.594 
11660000     164.9125    299.92979   -2461430.4   -2461430.4   -2441242.9   -32.166603    6384187.7    101.89269    101.72872    615.91251    30442.492 
11670000     167.4125    300.18522   -2461498.2   -2461498.2   -2441293.6   -183.86615    6384582.6    101.88744    101.74026    615.91251     29548.18 
11680000     169.9125    300.14096   -2461468.1   -2461468.1   -2441266.5    398.89103    6385135.1    101.90214    101.73439    615.91251    28653.481 
11690000     172.4125    299.97801     -2461459     -2461459   -2441268.3   -56.915854    6384177.3    101.88295    101.73828    615.91251    27758.792 
11700000     174.9125    300.64591   -2461486.2   -2461486.2   -2441250.6   -295.93045    6385099.2    101.90041    101.73554    615.91251    26864.068 
11710000     177.4125    300.02468   -2461471.2   -2461471.2   -2441277.4    80.319994    6385275.7    101.90125    101.73751    615.91251    25969.569 
11720000     179.9125    300.25551   -2461467.5   -2461467.5   -2441258.1    225.26512    6384621.9    101.89784     101.7305    615.91251    25075.422 
11730000     182.4125    299.91259   -2461440.7   -2461440.7   -2441254.4    17.041589    6384480.5    101.89506    101.73102    615.91251    24181.159 
11740000     184.9125    300.03299   -2461440.5   -2461440.5   -2441246.1   -33.689719    6383821.8    101.88863    101.72695    615.91251     23286.85 
11750000     187.4125    300.43441   -2461488.8   -2461488.8   -2441267.4    9.8585749    6383849.1    101.88218    101.73382    615.91251    22392.537 
11760000     189.9125    299.77817   -2461468.2   -2461468.2     -2441291    70.682035    6383893.8     101.8884    101.72832    615.91251    21498.472 
11770000     192.4125    299.87832     -2461473     -2461473   -2441289.1   -245.50643    6384303.1    101.89544    101.72782    615.91251    20604.472 
11780000     194.9125    299.93691   -2461481.2   -2461481.2   -2441293.3   -135.54628    6384734.7    101.89787    101.73227    615.91251    19710.168 
11790000     197.4125    300.34655   -2461495.1   -2461495.1   -2441279.6    24.507787    6384501.8    101.89611    101.73031    615.91251    18815.689 
11800000     199.9125     300.3807   -2461494.9   -2461494.9   -2441277.2   -5.9494499    6384922.4    101.89866    101.73447    615.91251    17921.257 
11810000     202.4125    299.34694   -2461449.8   -2461449.8   -2441301.6   -161.51092    6384641.5    101.90445    101.72421    615.91251    17026.552 
11820000     204.9125    299.87146   -2461477.9   -2461477.9   -2441294.4   -117.07929    6385084.7      101.907    101.72873    615.91251    16132.038 
11830000     207.4125    299.52846     -2461453     -2461453   -2441292.5    194.96906    6384718.4    101.88696     101.7429    615.91251    15237.557 
11840000     209.9125    300.13272   -2461461.5   -2461461.5   -2441260.4    142.30475    6384889.3    101.89992    101.73269    615.91251    14343.019 
11850000     212.4125     300.3337   -2461470.4   -2461470.4   -2441255.7    279.96926    6384332.1    101.89451    101.72921    615.91251    13448.536 
11860000     214.9125    300.08719   -2461477.4   -2461477.4   -2441279.4   -330.38594      6384744    101.89555    101.73474    615.91251    12554.142 
11870000     217.4125    300.05448   -2461464.4   -2461464.4   -2441268.5   -118.31842    6384265.7    101.89585    101.72681    615.91251    11659.723 
11880000     219.9125    299.74479   -2461476.3   -2461476.3   -2441301.3   -243.88151    6383475.1    101.88932    101.72073    615.91251    10765.269 
11890000     222.4125    299.23907   -2461451.4   -2461451.4   -2441310.5   -178.14201    6383392.4    101.88765    101.72109    615.91251    9870.8062 
11900000     224.9125     300.3175   -2461478.3   -2461478.3   -2441264.8   -276.97452    6385122.4    101.89548    101.74083    615.91251    8976.3482 
11910000     227.4125    300.10345   -2461492.5   -2461492.5   -2441293.4    207.64831    6384452.9    101.89142    101.73421    615.91251    8081.8167 
11920000     229.9125    300.01568   -2461473.2   -2461473.2   -2441279.9    187.78072    6384108.8    101.88888    101.73127    615.91251    7187.2292 
11930000     232.4125    299.81807   -2461475.4   -2461475.4   -2441295.5   -32.920447      6384641    101.89336    101.73528    615.91251    6292.6946 
11940000     234.9125    299.85045   -2461455.8   -2461455.8   -2441273.7   -237.30082    6385326.8    101.90155    101.73803    615.91251    5398.1383 
11950000     237.4125    300.13216     -2461497     -2461497     -2441296   -55.518164      6384329    101.89343    101.73024    615.91251    4503.6424 
11960000     239.9125    299.83861   -2461465.7   -2461465.7   -2441284.5   -51.218771    6384221.9    101.89151    101.73045    615.91251    3609.1664 
11970000     242.4125    300.16946   -2461470.8   -2461470.8   -2441267.3      240.366    6384069.6    101.89346    101.72608    615.91251    2714.6669 
11980000     244.9125    300.26523   -2461499.8   -2461499.8   -2441289.8     -155.166    6384028.1    101.88791    101.73096    615.91251    1820.1898 
11990000     247.4125    299.90434   -2461477.6   -2461477.6   -2441291.9   -341.71596      6384050    101.88934    101.72987    615.91251    925.75423 
12000000     249.9125    300.31059     -2461468     -2461468     -2441255   -88.215238    6384330.8    101.89183    101.73186    615.91251    31.306007 
12000350          250    299.84676   -2461490.2   -2461490.2   -2441308.3    227.24704    6383832.5    101.89065     101.7251    615.91251            0 
Loop time of 89445.8 on 96 procs for 1000000 steps with 520712 atoms

Performance: 0.241 ns/day, 99.384 hours/ns, 11.180 timesteps/s
100.0% CPU use with 96 MPI tasks x 1 OpenMP threads

MPI task timing breakdown:
Section |  min time  |  avg time  |  max time  |%varavg| %total
---------------------------------------------------------------
Pair    | 16170      | 27530      | 88084      |10037.1 | 30.78
Neigh   | 16.228     | 71.133     | 120.83     | 252.2 |  0.08
Comm    | 490.51     | 8744.1     | 42973      |11785.9 |  9.78
Output  | 2.372      | 2.3737     | 2.3906     |   0.1 |  0.00
Modify  | 543.85     | 53006      | 65865      |9106.5 | 59.26
Other   |            | 92.08      |            |       |  0.10

Nlocal:        5424.08 ave        8119 max        1701 min
Histogram: 6 0 0 0 19 21 33 11 0 6
Nghost:        9863.38 ave       11739 max        6744 min
Histogram: 6 0 0 2 18 22 18 6 6 18
Neighs:         0.00000 ave           0 max           0 min
Histogram: 96 0 0 0 0 0 0 0 0 0
FullNghs:  1.00183e+06 ave 1.34515e+06 max      151622 min
Histogram: 6 0 0 0 2 17 12 17 21 21

Total # of neighbors = 96175622
Ave neighs/atom = 184.70022
Neighbor list builds = 2444
Dangerous builds = 0
System init for write_restart ...
System init for write_data ...
Total wall time: 24:50:47
