LAMMPS (29 Sep 2021)
  using 1 OpenMP thread(s) per MPI task
Reading data file ...
  orthogonal box = (-0.31439309 -0.13068593 0.0000000) to (101.61346 101.42975 611.33702)
  3 by 2 by 16 MPI processor grid
  reading atoms ...
  458562 atoms
  reading velocities ...
  458562 velocities
  read_data CPU = 4.414 seconds
229280 atoms in group g_left
229282 atoms in group g_right

CITE-CITE-CITE-CITE-CITE-CITE-CITE-CITE-CITE-CITE-CITE-CITE-CITE

Your simulation uses code contributions which should be cited:
- @article{cjiang2012
The log file lists these citations in BibTeX format.

CITE-CITE-CITE-CITE-CITE-CITE-CITE-CITE-CITE-CITE-CITE-CITE-CITE

Neighbor list info ...
  update every 1 steps, delay 10 steps, check yes
  max neighbors/atom: 2000, page size: 100000
  master list distance cutoff = 8.28721
  ghost atom cutoff = 8.28721
  binsize = 4.143605, bins = 25 25 148
  3 neighbor lists, perpetual/occasional/extra = 3 0 0
  (1) pair eam/alloy, perpetual, skip from (3)
      attributes: half, newton on
      pair build: skip
      stencil: none
      bin: none
  (2) pair edip/multi, perpetual
      attributes: full, newton on
      pair build: full/bin/atomonly
      stencil: full/bin/3d
      bin: standard
  (3) neighbor class addition, perpetual, half/full from (2)
      attributes: half, newton on
      pair build: halffull/newton
      stencil: none
      bin: none
Setting up Verlet run ...
  Unit style    : metal
  Current step  : 0
  Time step     : 0.00025
Per MPI rank memory allocation (min/avg/max) = 8.813 | 12.37 | 18.51 Mbytes
Step Time Temp Press PotEng KinEng TotEng Volume 
       0            0    15298.419    149977.67   -2005325.2    906793.32   -1098531.9    6328461.3 
     100        0.025    15297.248    150293.73   -2005312.8    906723.92   -1098588.9    6312933.5 
     200         0.05    15297.645    150782.67   -2005346.4    906747.41     -1098599    6297405.8 
     300        0.075    15297.271    150923.41   -2005316.2    906725.24   -1098590.9      6281878 
     400          0.1    15297.234    151438.99   -2005325.8    906723.06   -1098602.8    6266350.2 
     500        0.125    15296.681    151654.28   -2005323.5    906690.32   -1098633.1    6250822.5 
     600         0.15     15297.03    152355.17   -2005346.4    906710.97   -1098635.5    6235294.7 
     700        0.175    15296.881    152843.66   -2005301.6    906702.13   -1098599.5      6219767 
     800          0.2    15297.977    152909.61   -2005338.2     906767.1   -1098571.1    6204239.2 
     900        0.225    15297.785    153500.14     -2005327    906755.71   -1098571.3    6188711.5 
    1000         0.25    15297.423    154001.23     -2005314    906734.28   -1098579.8    6173183.7 
    1100        0.275    15298.075    154298.94     -2005344    906772.92   -1098571.1      6157656 
    1200          0.3     15298.32    154626.85   -2005339.4    906787.46     -1098552    6142128.2 
    1300        0.325    15298.084    154881.37     -2005336    906773.43   -1098562.5    6126600.4 
    1400         0.35    15297.407    155522.28   -2005331.2     906733.3   -1098597.9    6111072.7 
    1500        0.375    15299.249    155769.56   -2005461.7     906842.5   -1098619.2    6095544.9 
    1600          0.4    15290.858     157716.4   -2004958.8    906345.14   -1098613.7    6080017.2 
    1700        0.425     15221.36    166116.49   -2000824.4    902225.72   -1098598.6    6064489.4 
    1800         0.45    15114.967    178427.29   -1994506.3    895919.46   -1098586.9    6048961.7 
    1900        0.475     15021.54    189376.51   -1988957.4     890381.7   -1098575.7    6033433.9 
    2000          0.5    14912.612    201896.48   -1982496.8    883925.13   -1098571.7    6017906.2 
    2100        0.525    14816.828    210291.34     -1976824    878247.65   -1098576.4    6002378.4 
    2200         0.55    14728.265    218781.78   -1971583.8    872998.22   -1098585.6    5986850.6 
    2300        0.575    14626.978    228580.04   -1965572.6    866994.52   -1098578.1    5971322.9 
    2400          0.6    14527.975    231871.59   -1959677.7    861126.28   -1098551.4    5955795.1 
    2500        0.625    14433.751    235648.45   -1954070.8    855541.27   -1098529.5    5940267.4 
    2600         0.65     14335.52    241939.62   -1948252.8    849718.75   -1098534.1    5924739.6 
    2700        0.675    14226.044    249432.61   -1941782.3    843229.69   -1098552.6    5909211.9 
    2800          0.7    14109.134     257227.6   -1934858.2    836300.02   -1098558.2    5893684.1 
    2900        0.725    13993.245    265289.54   -1927991.7    829430.85   -1098560.8    5878156.4 
    3000         0.75    13877.498    274683.15   -1921142.6    822570.09   -1098572.5    5862628.6 
    3100        0.775    13759.781    283519.14   -1914183.7    815592.59   -1098591.1    5847100.8 
    3200          0.8    13637.445    292617.28     -1906956    808341.29   -1098614.8    5831573.1 
    3300        0.825    13510.642    301703.99     -1899464    800825.23   -1098638.8    5816045.3 
    3400         0.85    13385.491    312516.47   -1892061.3    793407.04   -1098654.3    5800517.6 
    3500        0.875    13259.123    321294.63   -1884582.8    785916.79     -1098666    5784989.8 
    3600          0.9    13125.906    331076.84     -1876697    778020.51   -1098676.5    5769462.1 
    3700        0.925     12996.87    340775.39   -1869054.2    770372.06   -1098682.2    5753934.3 
    3800         0.95    12865.217    350226.48   -1861244.6    762568.52   -1098676.1    5738406.6 
    3900        0.975    12729.105    359165.71   -1853169.8    754500.64   -1098669.1    5722878.8 
    4000            1    12593.928    369268.56     -1845162     746488.2   -1098673.8      5707351 
    4100        1.025    12457.426    378235.53   -1837072.7    738397.23   -1098675.5    5691823.3 
    4200         1.05    12318.283    388498.82     -1828823    730149.73   -1098673.2    5676295.5 
    4300        1.075    12180.255    398193.44   -1820638.4    721968.31   -1098670.1    5660767.8 
    4400          1.1    12044.358    408367.86   -1812581.6    713913.18   -1098668.4      5645240 
    4500        1.125    11895.948    418225.67   -1803787.1    705116.39   -1098670.7    5629712.3 
    4600         1.15    11812.005    425638.78     -1798825    700140.81   -1098684.2    5614184.5 
    4700        1.175    11795.429    427286.09   -1797856.2    699158.27   -1098697.9    5598656.7 
    4800          1.2    11713.054     428236.8   -1792982.5    694275.57   -1098706.9      5583129 
    4900        1.225    11669.362    430142.39   -1790395.7    691685.82   -1098709.9    5567601.2 
    5000         1.25    11663.423    433353.69   -1790040.5    691333.78   -1098706.7    5552073.5 
    5100        1.275    11598.428    436683.24   -1786169.1    687481.27   -1098687.8    5536545.7 
    5200          1.3    11613.102    438427.06   -1787009.3    688351.05   -1098658.2      5521018 
    5300        1.325    11571.094    438918.93   -1784506.3    685861.11   -1098645.2    5505490.2 
    5400         1.35    11569.434    440085.97   -1784419.3    685762.72   -1098656.6    5489962.5 
    5500        1.375    11545.726    441373.07   -1783036.8    684357.45   -1098679.3    5474434.7 
    5600          1.4    11529.026    441692.63     -1782054    683367.57   -1098686.4    5458906.9 
    5700        1.425    11532.488    441217.13   -1782244.1    683572.82   -1098671.3    5443379.2 
    5800         1.45    11504.149     440109.6   -1780542.6    681893.04   -1098649.5    5427851.4 
    5900        1.475    11499.285    439628.83     -1780258    681604.73   -1098653.2    5412323.7 
    6000          1.5    11483.134       437419   -1779328.6    680647.42   -1098681.2    5396795.9 
    6100        1.525    11466.872    436304.39     -1778375    679683.51   -1098691.5    5381268.2 
    6200         1.55    11447.423    433594.97   -1777210.4    678530.67   -1098679.7    5365740.4 
    6300        1.575    11420.782    431326.31   -1775622.3    676951.56   -1098670.7    5350212.7 
    6400          1.6    11385.538    429332.62   -1773552.6    674862.55     -1098690    5334684.9 
    6500        1.625    11339.399    429082.02   -1770833.4    672127.68   -1098705.7    5319157.1 
    6600         1.65    11288.856    429333.45   -1767821.4    669131.81   -1098689.6    5303629.4 
    6700        1.675    11246.768     430449.5   -1765309.4    666637.09   -1098672.3    5288101.6 
    6800          1.7    11194.702    432223.54   -1762231.9    663550.97     -1098681    5272573.9 
    6900        1.725    11146.749    434015.65   -1759417.5     660708.6   -1098708.9    5257046.1 
    7000         1.75    11103.755    435270.07   -1756886.3    658160.23   -1098726.1    5241518.4 
    7100        1.775    11042.749     434692.7   -1753263.5    654544.16   -1098719.4    5225990.6 
    7200          1.8    10913.515    441017.18   -1745610.2    646884.01   -1098726.2    5210462.9 
    7300        1.825    10786.335    444613.13   -1738106.4    639345.58   -1098760.9    5194935.1 
    7400         1.85    10629.157    448694.19   -1728807.4    630029.04   -1098778.3    5179407.3 
    7500        1.875    10502.827    455676.55   -1721284.9       622541   -1098743.9    5163879.6 
    7600          1.9    10357.927    462062.31   -1712649.9    613952.24   -1098697.7    5148351.8 
    7700        1.925    10200.451    466061.04   -1703317.3    604618.06   -1098699.2    5132824.1 
    7800         1.95    10044.497    473052.67   -1694107.8     595374.1   -1098733.7    5117296.3 
    7900        1.975     9888.007     479301.9   -1684843.6    586098.38   -1098745.2    5101768.6 
    8000            2    9713.6821    485414.58   -1674491.1     575765.5   -1098725.6    5086240.8 
    8100        2.025    9547.3298    494096.82   -1664621.4    565905.19   -1098716.2      5070713 
    8200         2.05     9363.658    501839.92   -1653754.4    555018.29   -1098736.1    5055185.3 
    8300        2.075    9179.3202    509561.12   -1642843.7    544091.92   -1098751.7    5039657.5 
    8400          2.1    9002.7524    517674.72   -1632368.3     533626.1   -1098742.2    5024129.8 
    8500        2.125    8823.5038    527121.48   -1621724.4    523001.38     -1098723      5008602 
    8600         2.15    8658.2856    536952.59   -1611928.1    513208.29   -1098719.8    4993074.3 
    8700        2.175    8494.2991    546988.63   -1602215.7    503488.21   -1098727.5    4977546.5 
    8800          2.2    8334.6678    558082.78   -1592758.9    494026.27   -1098732.7    4962018.8 
    8900        2.225    8178.4254    568699.94   -1583494.9    484765.22   -1098729.7      4946491 
    9000         2.25    8030.7443    580671.21   -1574734.6    476011.62     -1098723    4930963.2 
    9100        2.275    7889.6718    591819.96   -1566372.1    467649.73   -1098722.4    4915435.5 
    9200          2.3    7751.4994    604158.16   -1558182.4    459459.75   -1098722.6    4899907.7 
    9300        2.325    7628.9257    615097.73   -1550921.8    452194.36   -1098727.4      4884380 
    9400         2.35    7602.7866    620329.77     -1549387       450645     -1098742    4868852.2 
    9500        2.375    7560.7815    621755.92   -1546902.7     448155.2   -1098747.5    4853324.5 
    9600          2.4    7492.4369    624943.22   -1542840.7    444104.17   -1098736.6    4837796.7 
    9700        2.425    7487.0512    627993.38     -1542507    443784.94   -1098722.1      4822269 
    9800         2.45    7454.1802    634357.01   -1540559.4    441836.56   -1098722.9    4806741.2 
    9900        2.475    7425.9955       638893   -1538910.7    440165.94   -1098744.7    4791213.4 
   10000          2.5    7462.5492    641763.91   -1541086.9    442332.62   -1098754.3    4775685.7 
   10100        2.525    7394.7442    644276.27   -1537043.8    438313.56   -1098730.2    4760157.9 
   10200         2.55    7430.2045    647019.52   -1539112.5    440415.43   -1098697.1    4744630.2 
   10300        2.575    7388.1057    650775.03     -1536621    437920.07     -1098701    4729102.4 
   10400          2.6     7388.768    655581.43   -1536689.1    437959.33   -1098729.8    4713574.7 
   10500        2.625     7399.829     658291.2   -1537351.6    438614.96   -1098736.6    4698046.9 
   10600         2.65    7381.6981    664693.58   -1536267.7    437540.28   -1098727.4    4682519.2 
   10700        2.675    7406.6369    671863.03   -1537759.1    439018.49   -1098740.6    4666991.4 
   10800          2.7    7411.7951    679214.85   -1538101.1    439324.23   -1098776.9    4651463.6 
   10900        2.725    7427.2225    684770.69   -1539037.6    440238.67     -1098799    4635935.9 
   11000         2.75    7438.3646    690254.63   -1539696.4     440899.1   -1098797.3    4620408.1 
   11100        2.775    7455.8551    697641.25   -1540724.2    441935.83   -1098788.4    4604880.4 
   11200          2.8    7451.9618    705658.35   -1540494.5    441705.06   -1098789.4    4589352.6 
   11300        2.825    7447.8514    716312.91   -1540268.4    441461.42   -1098806.9    4573824.9 
   11400         2.85     7428.029    727072.94   -1539092.4    440286.47     -1098806    4558297.1 
   11500        2.875    7395.0132    739311.48   -1537115.4    438329.51   -1098785.9    4542769.4 
   11600          2.9    7352.9866    752079.26   -1534616.1    435838.44   -1098777.6    4527241.6 
   11700        2.925    7311.0974    763957.34   -1532131.6    433355.51   -1098776.1    4511713.8 
   11800         2.95     7257.973    772568.63   -1528974.1    430206.63   -1098767.5    4496186.1 
   11900        2.975    7190.2221     782477.2     -1524955    426190.79   -1098764.3    4480658.3 
   12000            3     7045.103    798675.87   -1516360.7    417589.05   -1098771.6    4465130.6 
   12100        3.025    6909.7436    811848.52   -1508353.7     409565.8   -1098787.9    4449602.8 
   12200         3.05    6738.0481    824027.84   -1498183.1    399388.78   -1098794.3    4434075.1 
   12300        3.075    6563.2262    841011.07   -1487812.6    389026.45   -1098786.1    4418547.3 
   12400          3.1    6406.9314    854395.75   -1478539.1    379762.28   -1098776.9    4403019.5 
   12500        3.125    6230.1338    869031.11   -1468061.1    369282.84   -1098778.3    4387491.8 
   12600         3.15    6060.7329    883776.37   -1458013.8    359241.83   -1098771.9      4371964 
   12700        3.175    5902.0888    898538.39   -1448591.5    349838.41   -1098753.1    4356436.3 
   12800          3.2    5737.5208    911713.74   -1438825.9    340083.87     -1098742    4340908.5 
   12900        3.225    5586.3201    925043.61   -1429868.7    331121.65     -1098747    4325380.8 
   13000         3.25    5446.0284    938022.53   -1421554.8    322806.04   -1098748.8      4309853 
   13100        3.275      5313.37    948736.88   -1413690.3    314942.89   -1098747.4    4294325.3 
   13200          3.3    5180.8058    958671.19   -1405826.1    307085.33   -1098740.7    4278797.5 
   13300        3.325    5056.4862    967345.74   -1398445.6    299716.45   -1098729.1    4263269.7 
   13400         3.35    4939.0406    975599.71   -1391475.4    292755.02   -1098720.3      4247742 
   13500        3.375    4826.7523    983204.13   -1384819.4    286099.28   -1098720.1    4232214.2 
   13600          3.4    4720.0565    989585.58   -1378494.8    279775.03   -1098719.7    4216686.5 
   13700        3.425    4617.4453    996300.69     -1372403    273692.89   -1098710.1    4201158.7 
   13800         3.45     4516.802      1002726   -1366431.3    267727.39   -1098703.9      4185631 
   13900        3.475    4413.2367    1009598.3   -1360294.9     261588.7   -1098706.2    4170103.2 
   14000          3.5    4310.2639    1017888.9     -1354202    255485.13   -1098716.9    4154575.5 
   14100        3.525    4211.3902      1026081   -1348350.8    249624.52   -1098726.3    4139047.7 
   14200         3.55    4120.0642      1032795   -1342935.6    244211.29   -1098724.3    4123519.9 
   14300        3.575    4105.4927    1033758.1   -1342071.5    243347.58   -1098723.9    4107992.2 
   14400          3.6     4045.837    1034601.8     -1338543    239811.57   -1098731.4    4092464.4 
   14500        3.625    3974.3347    1036478.6   -1334310.1    235573.37   -1098736.7    4076936.7 
   14600         3.65    3958.7417    1038402.6   -1333391.2    234649.11   -1098742.1    4061408.9 
   14700        3.675    3883.5976    1041569.4   -1328938.7    230195.05   -1098743.7    4045881.2 
   14800          3.7    3825.9759    1044108.6   -1325521.5     226779.6   -1098741.9    4030353.4 
   14900        3.725    3824.3556    1045555.5   -1325422.1    226683.56   -1098738.5    4014825.7 
   15000         3.75    3735.7004    1048108.5   -1320161.2    221428.64   -1098732.6    3999297.9 
   15100        3.775    3751.8733    1049487.6   -1321107.6    222387.27   -1098720.3    3983770.1 
   15200          3.8    3700.5311    1052740.5   -1318044.5    219344.03   -1098700.4    3968242.4 
   15300        3.825    3670.2651    1056058.8   -1316202.9    217550.05   -1098652.8    3952714.6 
   15400         3.85    3658.9917    1058912.3   -1315294.7    216881.84   -1098412.8    3937186.9 
   15500        3.875    3565.6579      1064117   -1310019.5     211349.6   -1098669.9    3921659.1 
   15600          3.9    3585.4234    1073434.9   -1301000.1    212521.17     -1088479    3906131.4 
   15700        3.925    3688.9031      1084172   -1289809.3    218654.79   -1071154.5    3890603.6 
   15800         3.95     3755.258    1095432.8   -1278880.3    222587.89   -1056292.4    3875075.9 
   15900        3.975    3835.8143    1108354.5     -1266279    227362.76   -1038916.2    3859548.1 
   16000            4    3848.9187    1122657.1   -1252828.7     228139.5   -1024689.2    3844020.3 
   16100        4.025    3841.7793    1137832.3   -1239825.5    227716.33   -1012109.2    3828492.6 
   16200         4.05    3874.9472    1152949.6   -1224824.6    229682.31   -995142.27    3812964.8 
   16300        4.075    3955.9396    1174056.7   -1210808.2    234483.03   -976325.15    3797437.1 
   16400          4.1       3920.1    1194410.3   -1193753.4    232358.68    -961394.7    3781909.3 
   16500        4.125    3879.0994    1218299.1   -1176428.9    229928.43   -946500.46    3766381.6 
   16600         4.15    3840.3931    1248929.8   -1156451.4    227634.16   -928817.28    3750853.8 
   16700        4.175    3805.5588    1279806.3   -1135825.2    225569.41   -910255.82      3735326 
   16800          4.2     3752.923    1310754.2   -1114240.1    222449.49   -891790.64    3719798.3 
   16900        4.225    3725.6939    1343962.7     -1090574    220835.52   -869738.45    3704270.5 
   17000         4.25    3758.3723    1377468.2   -1064146.5    222772.48   -841374.06    3688742.8 
   17100        4.275     3849.949    1417014.5   -1035989.5    228200.57    -807788.9      3673215 
   17200          4.3    3967.0549    1457653.2   -1007894.9    235141.87   -772753.08    3657687.3 
   17300        4.325    4094.5075      1497846   -979378.32    242696.45   -736681.87    3642159.5 
   17400         4.35    4246.1926    1540577.9   -950916.98    251687.38   -699229.59    3626631.8 
   17500        4.375    4409.6933    1584022.5   -921719.07    261378.67   -660340.41      3611104 
   17600          4.4    4635.8766    1627564.1   -892816.54    274785.38   -618031.16    3595576.2 
   17700        4.425    4939.7929    1668331.8   -865444.83    292799.61   -572645.21    3580048.5 
   17800         4.45    5347.8121    1709325.3   -840755.06     316984.4   -523770.66    3564520.7 
   17900        4.475    5798.3136    1743239.8   -817543.93    343687.28   -473856.65      3548993 
   18000          4.5    6242.4375    1776120.7   -794510.64    370012.12   -424498.52    3533465.2 
   18100        4.525    6734.2685    1811250.2   -773833.42    399164.75   -374668.67    3517937.5 
   18200         4.55    7262.1254    1845615.8   -755304.56    430452.76    -324851.8    3502409.7 
   18300        4.575    7804.9499    1880386.2   -737830.17    462627.96   -275202.21      3486882 
   18400          4.6    8364.0443    1913820.6   -721621.57    495767.53   -225854.04    3471354.2 
   18500        4.625    8943.2385    1943445.8   -707169.85    530098.49   -177071.35    3455826.4 
   18600         4.65    9506.4355      1977235   -692151.06    563481.24   -128669.82    3440298.7 
   18700        4.675    10077.046    2010645.8   -678826.67     597303.4   -81523.276    3424770.9 
   18800          4.7    10642.985    2048232.8   -666772.92    630848.71   -35924.203    3409243.2 
   18900        4.725    11169.319    2085225.7   -655011.76    662046.41     7034.649    3393715.4 
   19000         4.75    11633.742    2124787.8   -642453.06    689574.47    47121.409    3378187.7 
   19100        4.775    12003.998    2165041.1   -627371.06    711520.89    84149.829    3362659.9 
   19200          4.8    12291.367    2206804.1   -609249.55    728554.31    119304.76    3347132.2 
   19300        4.825    12487.574    2252848.3   -586737.99    740184.24    153446.25    3331604.4 
   19400         4.85    12610.122    2302873.8   -560035.33    747448.07    187412.74    3316076.6 
   19500        4.875    12696.803    2353966.4   -531161.56    752586.03    221424.47    3300548.9 
   19600          4.9    12734.982    2407220.2   -498955.89    754849.03    255893.15    3285021.1 
   19700        4.925    12748.029    2461902.7   -466794.92    755622.36    288827.44    3269493.4 
   19800         4.95    12710.592      2521456   -433662.56    753403.31    319740.75    3253965.6 
   19900        4.975    12644.104    2579464.3   -400833.02    749462.34    348629.32    3238437.9 
   20000            5    12615.702      2637809   -370619.84    747778.84       377159    3222910.1 
   20100        5.025    12592.737    2697003.4   -340864.91    746417.61    405552.71    3207382.3 
   20200         5.05    12628.658    2753063.9   -315070.52    748546.77    433476.26    3191854.6 
   20300        5.075    12715.239    2802216.5   -293080.21     753678.8    460598.59    3176326.8 
   20400          5.1    12880.047    2844536.9   -276706.23    763447.52    486741.29    3160799.1 
   20500        5.125    13096.697    2878232.3   -263787.43    776289.19    512501.76    3145271.3 
   20600         5.15    13346.447    2908261.9   -253162.75     791092.8    537930.04    3129743.6 
   20700        5.175     13629.19    2932215.4   -244461.97    807852.02    563390.05    3114215.8 
   20800          5.2     13949.76    2954046.1   -237691.72    826853.33    589161.61    3098688.1 
   20900        5.225    14317.449    2974417.2   -232283.34     848647.6    616364.26    3083160.3 
   21000         5.25    14732.174    2996637.4   -227131.04    873229.87    646098.83    3067632.5 
   21100        5.275    15219.843    3020133.9    -222063.1    902135.82    680072.73    3052104.8 
   21200          5.3    15768.884    3047102.4   -216068.18     934679.5    718611.32      3036577 
   21300        5.325    16385.447    3080063.6   -211097.65    971225.43    760127.78    3021049.3 
   21400         5.35     16995.22    3117394.9   -203969.07    1007368.9    803399.86    3005521.5 
   21500        5.375    17565.389      3165389   -192935.96    1041164.9    848228.93    2989993.8 
   21600          5.4    18009.964    3227470.5   -172620.56    1067516.5    894895.93      2974466 
   21700        5.425    18319.599    3293003.5    -142747.3    1085869.7    943122.41    2958938.3 
   21800         5.45    18586.469    3363533.5   -108439.36    1101688.1    993248.72    2943410.5 
   21900        5.475    18841.555    3434621.5   -71882.187    1116807.9    1044925.7    2927882.7 
   22000          5.5    19116.197    3503089.8   -35640.977      1133087      1097446      2912355 
   22100        5.525    19395.866    3573084.3    1206.7775      1149664    1150870.8    2896827.2 
   22200         5.55    19716.828    3645790.3    35659.772    1168688.6    1204348.3    2881299.5 
   22300        5.575    20036.083    3720044.5    70543.809      1187612    1258155.8    2865771.7 
   22400          5.6    20379.639    3796956.6     103556.4    1207975.8    1311532.2      2850244 
   22500        5.625    20749.707    3880278.8    133702.72    1229911.1    1363613.8    2834716.2 
   22600         5.65    21161.781    3976297.1    160369.53    1254336.2    1414705.8    2819188.5 
   22700        5.675    21624.926    4069518.2    182093.67    1281788.6    1463882.2    2803660.7 
   22800          5.7    22098.245    4157387.6    200920.96    1309843.9    1510764.9    2788132.9 
   22900        5.725      22458.6      4257809    224605.39    1331203.5    1555808.9    2772605.2 
   23000         5.75    22648.769    4380186.8    255917.67    1342475.4    1598393.1    2757077.4 
   23100        5.775    22762.666    4516714.3    289132.01    1349226.5    1638358.5    2741549.7 
   23200          5.8    22778.786    4631982.2    326024.12      1350182    1676206.2    2726021.9 
   23300        5.825    22652.776    4730337.8    368807.38      1342713    1711520.3    2710494.2 
   23400         5.85    22380.316      4841269    418080.46    1326563.3    1744643.7    2694966.4 
   23500        5.875    21976.062    4951491.1    473017.21    1302601.7    1775618.9    2679438.7 
   23600          5.9     21449.03    5074574.8    533327.83    1271362.5    1804690.4    2663910.9 
   23700        5.925    20822.841    5204172.8    597526.59      1234246    1831772.6    2648383.1 
   23800         5.95    20203.488    5335651.8    660017.08    1197534.7    1857551.8    2632855.4 
   23900        5.975    19580.831    5460481.2    721240.05    1160627.5    1881867.6    2617327.6 
   24000            6    18952.207    5572396.1    781785.28    1123366.7      1905152    2601799.9 
   24100        6.025    18320.305    5679080.9    841012.33    1085911.5    1926923.9    2586272.1 
   24200         6.05    17663.728    5786290.9    900572.58    1046993.9    1947566.4    2570744.4 
   24300        6.075    17024.053      5880102    957921.07    1009077.9      1966999    2555216.6 
   24400          6.1    16384.084    5980534.4    1014397.7    971144.62    1985542.3    2539688.8 
   24500        6.125    15687.438    6083615.2    1073509.2    929851.87      2003361    2524161.1 
   24600         6.15    14986.462    6181986.9    1131907.7    888302.46    2020210.2    2508633.3 
   24700        6.175    14227.922    6289031.1    1193195.4    843341.04    2036536.4    2493105.6 
   24800          6.2    13427.028    6400048.2    1256208.7    795869.14    2052077.9    2477577.8 
   24900        6.225    12590.348      6520194    1320864.4    746276.04    2067140.4    2462050.1 
   25000         6.25    11790.815    6634562.4    1382606.2     698884.8      2081491    2446522.3 
   25100        6.275    11083.729    6734418.8    1438854.2    656973.18    2095827.4    2430994.6 
   25200          6.3    10476.792    6832296.5      1489741    620997.79    2110738.8    2415466.8 
   25300        6.325    10017.926    6922850.9    1534308.8    593799.16      2128108      2399939 
   25400         6.35    9728.6269    7023533.3    1575312.4    576651.33    2151963.7    2384411.3 
   25500        6.375    9716.4743      7134536    1612340.1    575931.01    2188271.1    2368883.5 
   25600          6.4    9880.2538    7263582.4    1646587.5    585638.82    2232226.3    2353355.8 
   25700        6.425     10049.64    7402597.4    1678319.4    595678.96    2273998.4      2337828 
   25800         6.45    10212.923    7542150.7    1711480.8    605357.36    2316838.2    2322300.3 
   25900        6.475    10507.668    7695107.6      1742247    622827.95      2365075    2306772.5 
   26000          6.5    10768.803    7852042.3    1778284.2    638306.36    2416590.5    2291244.8 
   26100        6.525    10815.263      8031625      1829564    641060.22    2470624.2      2275717 
   26200         6.55    10675.625    8226829.1    1895547.1    632783.39    2528330.5    2260189.2 
   26300        6.575    10496.591    8421947.5    1967802.9    622171.35    2589974.3    2244661.5 
   26400          6.6    10272.751    8599587.5    2048141.5    608903.54    2657045.1    2229133.7 
   26500        6.625    10255.456    8785029.4      2138089    607878.45    2745967.4      2213606 
   26600         6.65    10681.608    8994694.7    2241791.3    633138.03    2874929.3    2198078.2 
   26700        6.675    11227.751    9226928.3    2355302.7    665509.94    3020812.6    2182550.5 
   26800          6.7    11822.281    9478306.3    2473884.5    700749.87    3174634.3    2167022.7 
   26900        6.725    12846.603    9744403.3    2588774.7     761465.2    3350239.9      2151495 
   27000         6.75    13959.226     10030506    2698721.1    827414.44    3526135.5    2135967.2 
   27100        6.775    15097.067     10302571    2804488.2    894858.46    3699346.7    2120439.4 
   27200          6.8    16267.528     10569368    2909147.8    964235.93    3873383.8    2104911.7 
   27300        6.825    17265.085     10846934      3017289    1023364.8    4040653.8    2089383.9 
   27400         6.85    18045.839     11132813    3134425.7      1069643    4204068.6    2073856.2 
   27500        6.875    18525.604     11446495    3264907.6    1098080.4    4362987.9    2058328.4 
   27600          6.9    18679.653     11770761    3407144.5    1107211.4      4514356    2042800.7 
   27700        6.925    18657.926     12092927    3553274.6    1105923.6    4659198.2    2027272.9 
   27800         6.95    18671.372     12421248    3691702.7    1106720.6    4798423.2    2011745.1 
   27900        6.975    18898.073     12741302      3815061      1120158      4935219    1996217.4 
   28000            7    19366.343     13032061    3923490.4    1147914.1    5071404.5    1980689.6 
   28100        7.025    20018.571     13337149    4024581.2      1186574    5211155.2    1965161.9 
   28200         7.05    20922.035     13652422    4117945.1    1240125.6    5358070.7    1949634.1 
   28300        7.075    22049.693     14003564    4213508.8      1306966    5520474.8    1934106.4 
   28400          7.1    23433.692     14378225    4309159.9    1389000.7    5698160.6    1918578.6 
   28500        7.125     25056.69     14783584    4398552.4    1485201.8    5883754.1    1903050.9 
   28600         7.15    26960.611     15215643    4477951.1    1598054.2    6076005.3    1887523.1 
   28700        7.175    28920.286     15715306    4555504.1    1714211.2    6269715.3    1871995.3 
   28800          7.2    30560.119     16317157    4651499.7    1811410.1    6462909.8    1856467.6 
