LAMMPS (24 Mar 2022)
OMP_NUM_THREADS environment is not set. Defaulting to 1 thread. (src/comm.cpp:98)
  using 1 OpenMP thread(s) per MPI task

# System init

units      metal
dimension  3
boundary   p p p
atom_style atomic
timestep   0.00025


# read data
read_data NiO_supercell_iter_last_lmp.data
Reading data file ...
  orthogonal box = (0 0 0) to (12.649858 12.649858 12.649858)
  1 by 2 by 3 MPI processor grid
  reading atoms ...
  216 atoms
  read_data CPU = 0.002 seconds
replicate 2 2 2
Replicating atoms ...
  orthogonal box = (0 0 0) to (25.299717 25.299717 25.299717)
  1 by 2 by 3 MPI processor grid
  1728 atoms
  replicate CPU = 0.001 seconds

# pair potential

pair_style hybrid/overlay eam/alloy edip/multi
pair_coeff * * eam/alloy Mishin-Ni-Al-2009.eam.alloy Ni NULL
pair_coeff * * edip/multi NiAlO.edip Ni O

mass 2 15.999

dump   1 all atom 1000 generic.lammpstrj

# reporting
thermo_style custom step temp pe epair etotal press vol
thermo 100


# Single point
min_style hftn
minimize 1e-10 1e-10 10000 100000

CITE-CITE-CITE-CITE-CITE-CITE-CITE-CITE-CITE-CITE-CITE-CITE-CITE

Your simulation uses code contributions which should be cited:

- @article{cjiang2012
 author    = {Jian, Chao and Morgan, Dane, and Szlufarska, Izabella},
 title     = {Carbon tri-interstitial defect: A model for DII center},
 journal   = {Physical Review B},
 volume    = {86},
 pages     = {144118},
 year      = {2012},
}

@article{lpizzagalli2010,
 author    = {G. Lucas, M. Bertolus, and L. Pizzagalli},
 journal   = {J. Phys. : Condens. Matter 22},
 volume    = {22},
 pages     = {035802},
 year      = {2010},
}

CITE-CITE-CITE-CITE-CITE-CITE-CITE-CITE-CITE-CITE-CITE-CITE-CITE

WARNING: Using 'neigh_modify every 1 delay 0 check yes' setting during minimization (src/min.cpp:187)
Neighbor list info ...
  update every 1 steps, delay 0 steps, check yes
  max neighbors/atom: 2000, page size: 100000
  master list distance cutoff = 8.28721
  ghost atom cutoff = 8.28721
  binsize = 4.143605, bins = 7 7 7
  3 neighbor lists, perpetual/occasional/extra = 3 0 0
  (1) pair eam/alloy, perpetual, skip from (3)
      attributes: half, newton on
      pair build: skip
      stencil: none
      bin: none
  (2) pair edip/multi, perpetual
      attributes: full, newton on
      pair build: full/bin/atomonly
      stencil: full/bin/3d
      bin: standard
  (3) neighbor class addition, perpetual, half/full from (2)
      attributes: half, newton on
      pair build: halffull/newton
      stencil: none
      bin: none
Per MPI rank memory allocation (min/avg/max) = 8.349 | 8.349 | 8.349 Mbytes
   Step          Temp          PotEng         E_pair         TotEng         Press          Volume    
         0   0             -8921.847      -8921.847      -8921.847       22025.076      16193.733    
        80   0             -12061.344     -12061.344     -12061.344     -280931.59      16193.733    
Loop time of 10.6868 on 6 procs for 79 steps with 1728 atoms

99.9% CPU use with 6 MPI tasks x 1 OpenMP threads

Minimization stats:
  Stopping criterion = energy tolerance
  Energy initial, next-to-last, final = 
     -8921.84696268056  -12061.3439883913  -12061.3439911625
  Force two-norm initial, final = 0.00039135212 3.2340586e-07
  Force max component initial, final = 8.7814039e-06 4.2049791e-08
  Final line search alpha, max atom move = 0 0
  Iterations, force evaluations = 79 3922

MPI task timing breakdown:
Section |  min time  |  avg time  |  max time  |%varavg| %total
---------------------------------------------------------------
Pair    | 9.829      | 10.025     | 10.263     |   4.6 | 93.81
Neigh   | 0.0037297  | 0.0038207  | 0.0039758  |   0.1 |  0.04
Comm    | 0.33396    | 0.57182    | 0.76851    |  19.4 |  5.35
Output  | 0          | 0          | 0          |   0.0 |  0.00
Modify  | 0          | 0          | 0          |   0.0 |  0.00
Other   |            | 0.08606    |            |       |  0.81

Nlocal:            288 ave         292 max         284 min
Histogram: 2 0 0 0 0 2 0 0 0 2
Nghost:        2931.17 ave        2944 max        2912 min
Histogram: 1 1 0 0 0 0 0 2 0 2
Neighs:              0 ave           0 max           0 min
Histogram: 6 0 0 0 0 0 0 0 0 0
FullNghs:      36454.3 ave       37172 max       35813 min
Histogram: 2 0 0 0 2 0 0 0 0 2

Total # of neighbors = 218726
Ave neighs/atom = 126.57755
Neighbor list builds = 2
Dangerous builds = 0

# Thermalisation

velocity all create 300 1 mom yes rot no

#dump   1 all atom 10 generic.dump
fix 1 all npt temp 500 500 $(100*dt) iso 1.0 1.0 $(1000*dt)
fix 1 all npt temp 500 500 0.025000000000000001388 iso 1.0 1.0 $(1000*dt)
fix 1 all npt temp 500 500 0.025000000000000001388 iso 1.0 1.0 0.25
run 2000000
Per MPI rank memory allocation (min/avg/max) = 5.732 | 5.732 | 5.732 Mbytes
   Step          Temp          PotEng         E_pair         TotEng         Press          Volume    
        80   300           -12061.344     -12061.344     -11994.374     -276514.35      16193.733    
       100   234.75203     -12058.619     -12058.619     -12006.214     -724.27673      15960.484    
       200   269.8579      -12057.269     -12057.269     -11997.028      86485.581      15692.49     
       300   311.1126      -12052.899     -12052.899     -11983.448      76338.319      15696.431    
       400   380.84343     -12048.98      -12048.98      -11963.963     -28883.154      15592.682    
       500   370.65914     -12026.431     -12026.431     -11943.688     -26587.616      15566.368    
       600   376.82781     -12007.552     -12007.552     -11923.432      17327.678      15503.146    
       700   500.56888     -12012.473     -12012.473     -11900.73      -9428.4965      15532.123    
       800   553.00176     -12012.311     -12012.311     -11888.863      10685.206      15700.163    
       900   488.4428      -12008.634     -12008.634     -11899.598     -7105.5634      15748.255    
      1000   446.71643     -12005.436     -12005.436     -11905.715      816.84447      15847.301    
      1100   455.95097     -11997.051     -11997.051     -11895.268     -5493.8727      15776.367    
      1200   511.49943     -11992.525     -11992.525     -11878.342     -10159.542      15729.293    
      1300   556.46294     -11995.671     -11995.671     -11871.45       751.92752      15625.645    
      1400   540.75802     -12008.11      -12008.11      -11887.395     -7711.9863      15487.001    
      1500   509.05579     -12021.201     -12021.201     -11907.564     -19334.25       15415.114    
      1600   506.71444     -12034.803     -12034.803     -11921.688      1602.7275      15302.508    
      1700   501.0932      -12043.126     -12043.126     -11931.266      542.771        15263.848    
      1800   503.72843     -12050.366     -12050.366     -11937.917      684.20885      15202.058    
      1900   534.92472     -12066.185     -12066.185     -11946.773     -1247.7228      15164.63     
      2000   525.68959     -12078.817     -12078.817     -11961.466      1534.6288      15131.945    
      2100   506.56182     -12090.062     -12090.062     -11976.981      166.21271      15080.695    
      2200   502.36097     -12101.15      -12101.15      -11989.006      6525.3025      15030.515    
      2300   496.46737     -12108.926     -12108.926     -11998.098     -5886.0938      14939.224    
      2400   485.97602     -12112.893     -12112.893     -12004.407     -4691.6894      14871.504    
      2500   472.47472     -12109.223     -12109.223     -12003.752     -14959.262      14821.654    
      2600   502.67242     -12106.424     -12106.424     -11994.211      5758.2131      14776.394    
      2700   537.4272      -12108.246     -12108.246     -11988.274      3062.6895      14767.531    
      2800   524.47897     -12113.894     -12113.894     -11996.813     -6261.7498      14748.255    
      2900   499.4061      -12120.499     -12120.499     -12009.015      7676.6941      14743.088    
      3000   496.70858     -12127.144     -12127.144     -12016.263     -2796.8778      14724.061    
      3100   502.14482     -12132.71      -12132.71      -12020.615     -6242.0139      14726.072    
      3200   494.53498     -12135.136     -12135.136     -12024.74      -11779.66       14700.36     
      3300   491.38315     -12136.729     -12136.729     -12027.036      7445.1522      14682.102    
      3400   501.54462     -12136.84      -12136.84      -12024.879     -8807.0058      14664.472    
      3500   506.99249     -12136.967     -12136.967     -12023.79      -14822.22       14660.534    
      3600   502.24521     -12137.097     -12137.097     -12024.98       3831.5284      14649.2      
      3700   509.48979     -12141.084     -12141.084     -12027.349     -10282.074      14648.945    
      3800   496.79209     -12144.993     -12144.993     -12034.093      8232.5662      14641.405    
      3900   493.98813     -12149.366     -12149.366     -12039.092     -801.65502      14631.746    
      4000   506.30118     -12153.984     -12153.984     -12040.961     -9770.9677      14633.16     
      4100   507.88028     -12157.823     -12157.823     -12044.448     -937.55831      14627.096    
      4200   490.31343     -12159.668     -12159.668     -12050.214      2957.636       14612.513    
      4300   465.29794     -12157.387     -12157.387     -12053.518      7230.3418      14597.077    
      4400   477.24132     -12153.357     -12153.357     -12046.822      22977.802      14602.992    
      4500   506.04901     -12150.064     -12150.064     -12037.098     -1800.6463      14624.115    
      4600   505.36672     -12143.692     -12143.692     -12030.878      221.25025      14640.857    
      4700   512.5767      -12141.77      -12141.77      -12027.346     -12164.261      14660.517    
      4800   507.47855     -12141.987     -12141.987     -12028.701     -11316.171      14659.416    
      4900   498.7803      -12143.496     -12143.496     -12032.152      11073.645      14627.715    
      5000   511.33634     -12150.907     -12150.907     -12036.76      -2978.9145      14599.761    
      5100   504.56487     -12154.484     -12154.484     -12041.849      14910.088      14580.758    
      5200   487.46283     -12153.079     -12153.079     -12044.261     -14750.661      14597.813    
      5300   508.19132     -12154.88      -12154.88      -12041.435     -1412.3773      14578.375    
      5400   504.48761     -12153.706     -12153.706     -12041.088      5530.1074      14568.166    
      5500   506.29851     -12157.099     -12157.099     -12044.077     -1443.9229      14551.515    
      5600   490.28567     -12157.157     -12157.157     -12047.709      6279.6903      14559.115    
      5700   484.55343     -12156.386     -12156.386     -12048.218     -7653.877       14580.242    
      5800   494.09065     -12153.502     -12153.502     -12043.205     -7163.2002      14587.003    
      5900   503.18581     -12151.363     -12151.363     -12039.036     -7053.3491      14599.473    
      6000   495.09849     -12146.744     -12146.744     -12036.222     -2732.4153      14606.887    
      6100   507.36617     -12147.906     -12147.906     -12034.645      11524.015      14615.466    
      6200   512.81739     -12150.275     -12150.275     -12035.798     -16385.323      14623.832    
      6300   494.23069     -12152.164     -12152.164     -12041.835     -343.08395      14605.687    
      6400   495.40697     -12154.673     -12154.673     -12044.083      2608.3903      14599.119    
      6500   492.18113     -12151.887     -12151.887     -12042.016     -9165.8958      14587.256    
      6600   503.09014     -12151.664     -12151.664     -12039.358      5441.6856      14593.715    
      6700   500.41842     -12152.266     -12152.266     -12040.557     -35.391999      14599.115    
      6800   510.04809     -12154.411     -12154.411     -12040.552     -20993.486      14596.866    
      6900   507.15606     -12152.985     -12152.985     -12039.772      7654.8822      14592.2      
      7000   522.07359     -12151.605     -12151.605     -12035.061      11615.474      14589.88     
      7100   513.97365     -12151.033     -12151.033     -12036.298      4441.5345      14584.562    
      7200   496.90972     -12152.557     -12152.557     -12041.631     -8847.0877      14604.435    
      7300   496.08203     -12153.636     -12153.636     -12042.895     -7236.8813      14616.284    
      7400   497.3653      -12153.951     -12153.951     -12042.923      16854.175      14587.951    
      7500   507.53069     -12153.443     -12153.443     -12040.145     -2608.8883      14602.895    
      7600   507.85508     -12149.17      -12149.17      -12035.8        22499.883      14624.417    
      7700   508.47409     -12148.734     -12148.734     -12035.226     -14445.016      14653.603    
      7800   498.44662     -12152.244     -12152.244     -12040.975      14928.228      14624.668    
      7900   515.14334     -12158.159     -12158.159     -12043.163     -11090.021      14631.768    
      8000   491.59233     -12155.07      -12155.07      -12045.331      11643.016      14621.104    
      8100   488.83131     -12155.812     -12155.812     -12046.689      5743.9024      14611.585    
      8200   489.13305     -12153.35      -12153.35      -12044.16      -12111.815      14623.223    
      8300   513.35084     -12153.484     -12153.484     -12038.887      8952.0387      14609.76     
      8400   504.34832     -12151.453     -12151.453     -12038.866     -3022.1554      14626.202    
      8500   496.90881     -12152.048     -12152.048     -12041.122     -1997.075       14603        
      8600   496.18474     -12156.115     -12156.115     -12045.35      -6459.6243      14590.632    
      8700   493.66192     -12156.731     -12156.731     -12046.53      -10521.259      14589.431    
      8800   491.94689     -12154.897     -12154.897     -12045.078      10528.451      14593.462    
      8900   492.62868     -12153.872     -12153.872     -12043.901      14338.508      14585.76     
      9000   502.28613     -12153.907     -12153.907     -12041.78      -13550.463      14581.801    
      9100   512.08773     -12153.062     -12153.062     -12038.748     -3702.2216      14592.254    
      9200   510.84337     -12151.817     -12151.817     -12037.78       6224.0011      14592.77     
      9300   484.60907     -12152.848     -12152.848     -12044.668      14033.151      14585.684    
      9400   495.57932     -12156.421     -12156.421     -12045.791      11428.515      14577.254    
      9500   496.8026      -12153.264     -12153.264     -12042.362      21879.063      14590.279    
      9600   503.63487     -12151.945     -12151.945     -12039.517     -1225.064       14590.721    
      9700   504.70432     -12151.02      -12151.02      -12038.353     -7742.6295      14603.868    
      9800   492.71686     -12152.239     -12152.239     -12042.249     -12964.716      14600.932    
      9900   483.29829     -12154.351     -12154.351     -12046.463      8874.0415      14597.11     
     10000   501.2025      -12157.197     -12157.197     -12045.312      5226.9097      14594.231    
     10100   496.09823     -12153.66      -12153.66      -12042.915     -11931.436      14594.668    
     10200   498.62672     -12152.629     -12152.629     -12041.32      -10908.301      14619.229    
     10300   509.25983     -12155.3       -12155.3       -12041.617      19742.893      14593.853    
     10400   500.10692     -12154.626     -12154.626     -12042.986      7610.7562      14597.451    
     10500   491.71659     -12153.128     -12153.128     -12043.361      6562.1002      14609.975    
     10600   503.79412     -12155.485     -12155.485     -12043.022     -24586.641      14620.244    
     10700   501.39447     -12154.582     -12154.582     -12042.655      2342.9193      14624.301    
     10800   501.29597     -12150.828     -12150.828     -12038.923     -30760.119      14633.294    
     10900   505.67845     -12148.729     -12148.729     -12035.846      10550.386      14624.121    
     11000   518.00061     -12151.565     -12151.565     -12035.93      -15012.199      14615.466    
     11100   508.0636      -12156.256     -12156.256     -12042.839     -3645.0583      14596.598    
     11200   485.66037     -12153.859     -12153.859     -12045.444     -5016.4473      14587.333    
     11300   491.90671     -12154.588     -12154.588     -12044.779     -19380.583      14594.137    
     11400   493.27114     -12151.871     -12151.871     -12041.757      31312.156      14587.187    
     11500   516.5728      -12152.623     -12152.623     -12037.308     -5130.1813      14589.284    
     11600   505.84983     -12150.644     -12150.644     -12037.722      3610.7296      14596.772    
     11700   507.03452     -12153.129     -12153.129     -12039.943     -10581.731      14584.162    
     11800   499.68215     -12154.432     -12154.432     -12042.887      5256.4143      14589.401    
     11900   496.09863     -12154.098     -12154.098     -12043.353     -11616.613      14583.77     
     12000   513.77117     -12157.331     -12157.331     -12042.641      13139.989      14582.194    
     12100   495.06749     -12153.856     -12153.856     -12043.341     -8765.0624      14593.35     
     12200   507.21624     -12156.975     -12156.975     -12043.748      5082.9562      14597.201    
     12300   503.29817     -12153.901     -12153.901     -12041.548     -6382.0054      14606.139    
     12400   503.63954     -12152.103     -12152.103     -12039.674     -2906.5914      14599.56     
     12500   502.50217     -12151.049     -12151.049     -12038.875     -2922.3921      14609.828    
     12600   491.37257     -12149.9       -12149.9       -12040.21       14542.182      14613.246    
     12700   496.07119     -12155.134     -12155.134     -12044.395      10885.02       14615.407    
     12800   491.15398     -12155.504     -12155.504     -12045.863     -12973.169      14629.038    
     12900   508.30775     -12155.572     -12155.572     -12042.102      4033.2578      14597.579    
     13000   497.00992     -12150.401     -12150.401     -12039.452      7765.7028      14611.106    
     13100   505.4946      -12152.365     -12152.365     -12039.522     -17536.372      14613.105    
     13200   513.03214     -12156.319     -12156.319     -12041.794      9484.1596      14601.596    
     13300   488.56625     -12153.971     -12153.971     -12044.907      10410.314      14599.142    
     13400   491.67194     -12153.79      -12153.79      -12044.033     -9209.8149      14622.067    
     13500   516.24039     -12154.073     -12154.073     -12038.832      4946.6235      14591.807    
     13600   512.30231     -12152.217     -12152.217     -12037.855     -24426.184      14594.59     
     13700   497.96511     -12150.303     -12150.303     -12039.141     -8397.1256      14596.304    
     13800   500.38913     -12153.751     -12153.751     -12042.048     -7389.4115      14591.488    
     13900   501.17438     -12156.999     -12156.999     -12045.121     -261.1259       14579.174    
     14000   476.57444     -12152.341     -12152.341     -12045.954      13156.677      14571.736    
     14100   501.56422     -12151.949     -12151.949     -12039.983     -19438.253      14581.206    
     14200   526.96154     -12156.063     -12156.063     -12038.428      970.56659      14576.94     
     14300   506.35885     -12154.319     -12154.319     -12041.283      1892.5014      14587.103    
     14400   493.84686     -12153.93      -12153.93      -12043.688     -7796.4143      14584.058    
     14500   498.2627      -12156.456     -12156.456     -12045.228     -25446.115      14593.765    
     14600   501.42957     -12157.598     -12157.598     -12045.663      5171.767       14591.889    
     14700   509.83997     -12157.323     -12157.323     -12043.51      -6883.5207      14629.889    
     14800   503.00514     -12152.372     -12152.372     -12040.085      4209.5302      14617.86     
     14900   507.70503     -12151.889     -12151.889     -12038.553     -13949.25       14629.698    
     15000   516.57915     -12155.292     -12155.292     -12039.974     -2820.0316      14624.779    
     15100   493.86016     -12155.888     -12155.888     -12045.642     -39327.442      14631.52     
     15200   481.88954     -12154.081     -12154.081     -12046.507      9765.2319      14602.269    
     15300   496.07029     -12154.213     -12154.213     -12043.474      24743.172      14596.032    
     15400   505.3609      -12154.207     -12154.207     -12041.394      4582.4635      14607.106    
     15500   493.74848     -12150.858     -12150.858     -12040.637      15212.954      14608.034    
     15600   501.78958     -12153.012     -12153.012     -12040.996     -16334.254      14640.862    
     15700   501.32371     -12156.752     -12156.752     -12044.84      -404.2981       14607.271    
     15800   475.09947     -12155.538     -12155.538     -12049.48      -11036.034      14604.4      
     15900   492.12772     -12157.038     -12157.038     -12047.18      -4931.5795      14594.022    
     16000   501.26786     -12155.478     -12155.478     -12043.579      3289.8121      14603.071    
     16100   514.91033     -12156.618     -12156.618     -12041.674     -2163.8579      14589.916    
     16200   502.26939     -12152.58      -12152.58      -12040.457      20793.361      14578.245    
     16300   510.0325      -12153.45      -12153.45      -12039.595     -25226.662      14604.044    
     16400   498.03714     -12148.079     -12148.079     -12036.901     -8830.8226      14602.415    
     16500   507.88177     -12150.541     -12150.541     -12037.166     -1817.8489      14585.199    
     16600   513.12335     -12156.443     -12156.443     -12041.898      6426.6865      14568.29     
     16700   494.5478      -12154.326     -12154.326     -12043.927     -14918.117      14577.192    
     16800   496.39517     -12153.42      -12153.42      -12042.609     -16429.282      14589.259    
     16900   506.00283     -12151.977     -12151.977     -12039.021      18245.997      14583.086    
     17000   512.91407     -12148.173     -12148.173     -12033.674      5392.9601      14580.049    
     17100   535.88583     -12152.218     -12152.218     -12032.591     -11049.903      14590.147    
     17200   502.95613     -12148.724     -12148.724     -12036.447      19052.526      14576.24     
     17300   504.34059     -12152.367     -12152.367     -12039.782     -1570.0723      14595.909    
     17400   496.1421      -12154.726     -12154.726     -12043.971     -21526.236      14613.382    
     17500   497.46717     -12156.72      -12156.72      -12045.669      19359.408      14606.997    
     17600   505.09468     -12156.253     -12156.253     -12043.5       -7764.4282      14608.104    
     17700   494.54838     -12149.08      -12149.08      -12038.68      -8738.8366      14607.41     
     17800   508.09273     -12150.685     -12150.685     -12037.263     -2018.1237      14600.578    
     17900   489.11227     -12148.291     -12148.291     -12039.106     -906.35433      14615.753    
     18000   506.90005     -12155.946     -12155.946     -12042.79       11635.79       14610.953    
     18100   503.71336     -12156.96      -12156.96      -12044.515      7880.3914      14611.051    
     18200   499.61809     -12155.819     -12155.819     -12044.289      3836.3112      14605.496    
     18300   508.49672     -12155.546     -12155.546     -12042.034     -487.08316      14594.047    
     18400   525.71658     -12153.301     -12153.301     -12035.944     -10190.521      14606.527    
     18500   494.43815     -12147.707     -12147.707     -12037.333     -11056.972      14593.255    
     18600   507.60993     -12153.968     -12153.968     -12040.653      12728.48       14589.349    
     18700   498.14542     -12154.121     -12154.121     -12042.919     -18531.835      14593.644    
     18800   497.18052     -12153.627     -12153.627     -12042.641     -3516.4061      14606.239    
     18900   498.75147     -12153.945     -12153.945     -12042.608      2469.0694      14597.862    
     19000   504.97487     -12155.463     -12155.463     -12042.736     -2748.0266      14597.234    
     19100   497.33267     -12154.6       -12154.6       -12043.579     -6208.2737      14602.002    
     19200   502.41641     -12152.657     -12152.657     -12040.501      4790.5488      14600.472    
     19300   517.85057     -12153.117     -12153.117     -12037.516      9770.896       14608.629    
     19400   502.99849     -12152.435     -12152.435     -12040.15       14705.722      14594.604    
     19500   509.234       -12157.234     -12157.234     -12043.557     -6728.9335      14621.244    
     19600   495.10847     -12156.789     -12156.789     -12046.265     -15901.415      14622.232    
     19700   487.67736     -12154.764     -12154.764     -12045.899      10770.688      14607.61     
     19800   512.61577     -12153.114     -12153.114     -12038.682     -2125.6793      14617.197    
     19900   507.3649      -12152.225     -12152.225     -12038.965     -7378.2143      14597.505    
     20000   492.20633     -12151.859     -12151.859     -12041.983     -8234.0686      14623.195    
     20100   496.07122     -12155.891     -12155.891     -12045.152      31661.609      14584.804    
     20200   481.82421     -12154.541     -12154.541     -12046.982     -4354.0587      14606.199    
     20300   501.80821     -12155.123     -12155.123     -12043.103     -5499.6104      14612.33     
     20400   507.88912     -12151.666     -12151.666     -12038.289     -3675.0345      14622.382    
     20500   503.87268     -12151.758     -12151.758     -12039.277     -10528.773      14618.816    
     20600   496.99737     -12153.046     -12153.046     -12042.1        2949.0423      14598.215    
     20700   490.84594     -12154.373     -12154.373     -12044.8       -7582.8273      14606.149    
     20800   490.416       -12155.373     -12155.373     -12045.896     -8567.9303      14611.874    
     20900   493.49983     -12153.248     -12153.248     -12043.083      10035.971      14604.236    
     21000   499.73443     -12150.218     -12150.218     -12038.661      3642.4192      14591.656    
     21100   504.43003     -12150.159     -12150.159     -12037.554     -15829.304      14590.271    
     21200   502.20741     -12152.086     -12152.086     -12039.977      11908.026      14579.048    
     21300   491.47715     -12155.197     -12155.197     -12045.483     -17959.185      14604.291    
     21400   504.32801     -12157.317     -12157.317     -12044.735      12498.432      14583.121    
     21500   500.91826     -12154.376     -12154.376     -12042.555     -285.19705      14599.671    
     21600   504.55061     -12154.267     -12154.267     -12041.635     -15176.423      14598.603    
     21700   504.0615      -12150.649     -12150.649     -12038.126      17275.035      14601.573    
     21800   517.88407     -12151.443     -12151.443     -12035.834     -4967.4655      14611.327    
     21900   507.29783     -12153.585     -12153.585     -12040.339     -2527.8241      14608.822    
     22000   498.54094     -12154.409     -12154.409     -12043.118      8264.2986      14592.823    
     22100   510.11277     -12157.357     -12157.357     -12043.484     -446.83123      14604.946    
     22200   495.52892     -12154.074     -12154.074     -12043.456     -8433.4165      14612.372    
     22300   501.91817     -12153.323     -12153.323     -12041.278      8286.0715      14601.985    
     22400   516.2353      -12151.261     -12151.261     -12036.02       3422.0802      14598.696    
     22500   501.66439     -12148.11      -12148.11      -12036.123     -4439.8906      14607.906    
     22600   499.19322     -12152.246     -12152.246     -12040.81      -16949.102      14615.936    
     22700   495.21552     -12153.151     -12153.151     -12042.603      7736.2425      14602.455    
     22800   501.7831      -12154.353     -12154.353     -12042.339      9356.8176      14591.829    
     22900   493.84487     -12153.631     -12153.631     -12043.389     -9865.8217      14596.699    
     23000   498.93879     -12154.451     -12154.451     -12043.072     -19745.068      14611.855    
     23100   505.4353      -12155.325     -12155.325     -12042.495     -21661.33       14604.838    
     23200   506.34846     -12153.994     -12153.994     -12040.96      -1345.6139      14600.394    
     23300   506.13859     -12152.588     -12152.588     -12039.602      1381.4746      14574.808    
     23400   498.77993     -12152.588     -12152.588     -12041.244     -5844.1227      14595.832    
     23500   489.04299     -12155.22      -12155.22      -12046.05       6993.4496      14584.228    
     23600   488.70557     -12157.039     -12157.039     -12047.944      7309.3526      14588.662    
     23700   487.38359     -12153.609     -12153.609     -12044.809      12328.278      14588.231    
     23800   511.41363     -12155.903     -12155.903     -12041.738      15065.71       14602.196    
     23900   495.48253     -12152.912     -12152.912     -12042.305     -17240.023      14602.589    
     24000   500.01604     -12154.196     -12154.196     -12042.576     -14706.364      14594.214    
     24100   499.91157     -12153.196     -12153.196     -12041.599      19761.12       14571.217    
     24200   500.65863     -12150.373     -12150.373     -12038.61       1511.2656      14594.413    
     24300   507.41126     -12148.848     -12148.848     -12035.577      3944.2074      14613.338    
     24400   505.84328     -12151.664     -12151.664     -12038.744      9745.7464      14624.823    
     24500   493.02053     -12152.906     -12152.906     -12042.848     -2175.9165      14611.065    
     24600   492.98017     -12153.784     -12153.784     -12043.735      16788.399      14599.708    
     24700   493.34788     -12153.944     -12153.944     -12043.813      14468.322      14595.624    
     24800   497.96739     -12152.444     -12152.444     -12041.281     -6541.0094      14610.115    
     24900   513.40842     -12151.044     -12151.044     -12036.435     -449.18281      14606.571    
     25000   502.1002      -12151.513     -12151.513     -12039.428     -11017.243      14600.92     
     25100   509.08007     -12155.992     -12155.992     -12042.349      19534.971      14595.352    
     25200   498.94885     -12155.771     -12155.771     -12044.39      -3797.9887      14582.19     
     25300   502.22845     -12156.065     -12156.065     -12043.952     -8204.577       14595.592    
     25400   500.14351     -12153.81      -12153.81      -12042.162      7422.0308      14600.377    
     25500   517.20719     -12150.549     -12150.549     -12035.091     -19777.663      14611.902    
     25600   514.66082     -12150.934     -12150.934     -12036.045     -2506.9146      14616.962    
     25700   512.16144     -12154.332     -12154.332     -12040.001     -9764.9226      14610.948    
     25800   496.75263     -12153.79      -12153.79      -12042.899     -9753.3183      14607.697    
     25900   511.37378     -12157.771     -12157.771     -12043.616      24003.476      14585.711    
     26000   495.92467     -12154.071     -12154.071     -12043.364      2048.8159      14605.487    
     26100   503.04146     -12150.524     -12150.524     -12038.229      6492.7485      14609.603    
     26200   518.11243     -12151.515     -12151.515     -12035.855     -5763.9473      14611.017    
     26300   507.88409     -12152.134     -12152.134     -12038.758      3173.7376      14593.396    
     26400   511.8116      -12155.415     -12155.415     -12041.162     -10209.501      14590.645    
     26500   495.31753     -12152.97      -12152.97      -12042.399     -957.68923      14595.551    
     26600   505.56022     -12155.453     -12155.453     -12042.595      19819.257      14584.315    
     26700   488.20106     -12153.939     -12153.939     -12044.957      9853.1762      14594.361    
     26800   497.46408     -12158.691     -12158.691     -12047.641      4710.9019      14593.886    
     26900   488.45942     -12157.187     -12157.187     -12048.147     -398.20716      14615.932    
     27000   497.85224     -12155.645     -12155.645     -12044.508     -8756.4516      14613.42     
     27100   502.1097      -12152.882     -12152.882     -12040.795      7584.4676      14617.594    
     27200   502.86887     -12152.679     -12152.679     -12040.423      13738.844      14607.952    
     27300   504.87973     -12156.215     -12156.215     -12043.509     -11662.673      14628.051    
     27400   493.68646     -12158.488     -12158.488     -12048.281     -16502.148      14616.671    
     27500   483.40762     -12155.808     -12155.808     -12047.896     -3967.1152      14592.395    
     27600   506.11958     -12158.293     -12158.293     -12045.311     -16137.702      14597.307    
     27700   491.77822     -12152.682     -12152.682     -12042.901     -8235.4489      14592.012    
     27800   515.96471     -12154.714     -12154.714     -12039.534     -6574.037       14590.613    
     27900   521.92646     -12155.956     -12155.956     -12039.445      3678.6411      14597.327    
     28000   498.74213     -12155.47      -12155.47      -12044.135     -9313.0746      14609.278    
     28100   488.99657     -12156.064     -12156.064     -12046.904      9438.176       14598.67     
     28200   489.2941      -12155.376     -12155.376     -12046.149      8659.2773      14587.879    
     28300   493.79142     -12153.538     -12153.538     -12043.308     -1481.8575      14582.222    
     28400   512.7458      -12154.754     -12154.754     -12040.292     -10741.028      14605.665    
     28500   504.14298     -12152.703     -12152.703     -12040.162      4267.8885      14601.815    
     28600   490.51999     -12153.869     -12153.869     -12044.369     -2391.7764      14588.163    
     28700   495.88108     -12159.409     -12159.409     -12048.712      7027.1938      14582.834    
     28800   500.71719     -12158.388     -12158.388     -12046.611      10060.565      14598.997    
     28900   485.24739     -12152.516     -12152.516     -12044.193     -8855.8441      14634.369    
     29000   495.05205     -12152.32      -12152.32      -12041.808      6982.4502      14621.821    
     29100   507.23382     -12154.034     -12154.034     -12040.803     -474.94822      14615.181    
     29200   492.27392     -12151.143     -12151.143     -12041.251      16770.49       14598.17     
     29300   503.80756     -12154.278     -12154.278     -12041.812      7994.3146      14599.375    
     29400   493.81342     -12154.744     -12154.744     -12044.509     -5387.7295      14612.598    
     29500   481.50858     -12156.608     -12156.608     -12049.119     -25064.057      14618.971    
     29600   482.46795     -12156.39      -12156.39      -12048.688      9327.0903      14604.928    
     29700   510.68387     -12157.779     -12157.779     -12043.778      3143.6134      14596.891    
     29800   493.72331     -12152.08      -12152.08      -12041.865     -438.48851      14609.627    
     29900   498.94194     -12153.075     -12153.075     -12041.695     -15318.309      14617.266    
     30000   501.84767     -12153.873     -12153.873     -12041.844     -1087.2876      14618.895    
     30100   500.32244     -12154.362     -12154.362     -12042.674     -9122.0077      14631.678    
     30200   494.51473     -12154.798     -12154.798     -12044.406      1015.0686      14612.874    
     30300   507.53822     -12157.408     -12157.408     -12044.109      6614.2525      14608.107    
     30400   490.26081     -12153.188     -12153.188     -12043.746     -2910.8227      14615.62     
     30500   496.50883     -12151.864     -12151.864     -12041.027     -16836.696      14630.37     
     30600   518.8725      -12153.919     -12153.919     -12038.09      -1189.7767      14602.392    
     30700   503.71623     -12152.175     -12152.175     -12039.73      -2391.4997      14594.215    
     30800   499.55996     -12156.994     -12156.994     -12045.476      1482.5791      14586.008    
     30900   491.79171     -12156.122     -12156.122     -12046.338     -1817.8605      14612.602    
     31000   502.48766     -12155.541     -12155.541     -12043.37      -5111.0042      14617.743    
     31100   494.55467     -12151.935     -12151.935     -12041.535      7787.2585      14606.606    
     31200   509.89324     -12155.269     -12155.269     -12041.444      9413.665       14598.855    
     31300   498.37521     -12158.475     -12158.475     -12047.222      2656.5652      14597.44     
     31400   485.47526     -12157.613     -12157.613     -12049.239     -1276.3557      14607.789    
     31500   488.98524     -12155.53      -12155.53      -12046.373      4868.0699      14612.313    
     31600   498.14605     -12153.514     -12153.514     -12042.311     -16744.279      14614.013    
     31700   505.07049     -12153.345     -12153.345     -12040.597     -22605.897      14607.118    
     31800   492.689       -12151.476     -12151.476     -12041.492      4832.1512      14588.253    
     31900   512.72454     -12157.706     -12157.706     -12043.25       32208.253      14558.453    
     32000   484.11989     -12155.714     -12155.714     -12047.643      10854.105      14572.377    
     32100   489.07248     -12155.122     -12155.122     -12045.945     -15680.663      14602.607    
     32200   509.2266      -12155.481     -12155.481     -12041.806     -7970.3529      14613.324    
     32300   490.62337     -12149.771     -12149.771     -12040.248     -379.79711      14609.899    
     32400   498.12072     -12151.6       -12151.6       -12040.404     -3115.8456      14601.269    
     32500   507.08363     -12154.495     -12154.495     -12041.298      16265.51       14591.512    
     32600   498.99117     -12154.846     -12154.846     -12043.455     -1114.3196      14604.537    
     32700   501.94828     -12156.355     -12156.355     -12044.304     -6199.6652      14616.905    
     32800   499.59496     -12157.767     -12157.767     -12046.242     -2703.0656      14616.253    
     32900   489.30954     -12156.665     -12156.665     -12047.435     -1500.0316      14621.134    
     33000   495.09117     -12155.507     -12155.507     -12044.986     -27115.573      14624.229    
     33100   500.28211     -12153.182     -12153.182     -12041.503      17420.728      14618.668    
     33200   505.8836      -12151.291     -12151.291     -12038.362      297.30697      14610.782    
     33300   497.01631     -12151.324     -12151.324     -12040.374      15909.142      14594.288    
     33400   497.54555     -12153.673     -12153.673     -12042.605      27210.373      14593.848    
     33500   508.59767     -12156.984     -12156.984     -12043.448     -15403.741      14617.667    
     33600   489.07993     -12151.932     -12151.932     -12042.754      107.14503      14618.228    
     33700   495.17733     -12151.836     -12151.836     -12041.297     -10771.455      14612.005    
     33800   501.46163     -12150.188     -12150.188     -12038.245     -2198.7953      14598.839    
     33900   522.46717     -12151.624     -12151.624     -12034.993     -6183.2954      14601.074    
     34000   516.30568     -12152.306     -12152.306     -12037.05      -16597.773      14606.167    
     34100   500.72387     -12154.744     -12154.744     -12042.966     -21613.252      14599.258    
     34200   508.28314     -12157.474     -12157.474     -12044.009     -1242.6191      14601.667    
     34300   500.24224     -12155.484     -12155.484     -12043.814     -5242.7857      14593.835    
     34400   501.96482     -12153.922     -12153.922     -12041.868      3241.5897      14602.386    
     34500   505.89698     -12151.013     -12151.013     -12038.08      -10868.711      14607.457    
     34600   510.60533     -12151.402     -12151.402     -12037.419     -1119.827       14620.095    
     34700   499.91254     -12154.74      -12154.74      -12043.144     -5709.7467      14599.192    
     34800   497.85779     -12157.023     -12157.023     -12045.885     -12396.571      14607.588    
     34900   502.50047     -12157.545     -12157.545     -12045.371      8731.0728      14617.429    
     35000   505.47627     -12154.831     -12154.831     -12041.993     -1818.5399      14620.265    
     35100   497.57012     -12150.145     -12150.145     -12039.071      5661.5735      14625.646    
     35200   510.97634     -12151.877     -12151.877     -12037.81       8330.3975      14598.996    
     35300   501.43587     -12149.414     -12149.414     -12037.478     -7575.6692      14606.951    
     35400   496.17809     -12152.523     -12152.523     -12041.76      -2343.1084      14581.36     
     35500   506.05874     -12156.788     -12156.788     -12043.82       5254.9144      14590.595    
     35600   498.717       -12154.93      -12154.93      -12043.6       -10897.719      14597.436    
     35700   511.18988     -12154.856     -12154.856     -12040.741      7480.1931      14596.737    
     35800   514.67117     -12152.369     -12152.369     -12037.478     -21428.169      14602.911    
     35900   493.14613     -12146.867     -12146.867     -12036.781      26091.755      14582.602    
     36000   522.72579     -12157.938     -12157.938     -12041.249     -1568.177       14604.657    
     36100   483.61799     -12153.749     -12153.749     -12045.79       6072.2055      14608.114    
     36200   479.5954      -12151.237     -12151.237     -12044.176     -10512.945      14606.448    
     36300   510.3877      -12154.421     -12154.421     -12040.486      10479.375      14592.537    
     36400   506.19469     -12154.157     -12154.157     -12041.158     -6324.3981      14611.067    
     36500   492.17948     -12153.718     -12153.718     -12043.848      16936.519      14593.286    
     36600   480.34321     -12156.315     -12156.315     -12049.087      6593.0281      14611.195    
     36700   484.07437     -12156.199     -12156.199     -12048.138     -8306.3129      14606.629    
     36800   503.64984     -12157.912     -12157.912     -12045.481      12557.021      14606.641    
     36900   490.30647     -12153.085     -12153.085     -12043.633      5620.3176      14608.146    
     37000   500.89414     -12153.191     -12153.191     -12041.375     -4624.7437      14609.137    
     37100   496.47098     -12151.368     -12151.368     -12040.54      -12599.25       14622.392    
     37200   492.69914     -12154.385     -12154.385     -12044.399      2317.9877      14611.391    
     37300   484.22754     -12156.652     -12156.652     -12048.557      9336.6978      14617.396    
     37400   507.04241     -12159.403     -12159.403     -12046.215     -13173.644      14607.896    
     37500   499.80199     -12154.568     -12154.568     -12042.996     -2276.9438      14616.063    
     37600   507.40372     -12155.246     -12155.246     -12041.978     -27146.762      14612.915    
     37700   493.53598     -12150.999     -12150.999     -12040.826     -2347.1841      14606.953    
     37800   511.26448     -12155.033     -12155.033     -12040.903      201.71685      14609.164    
     37900   502.40647     -12155.214     -12155.214     -12043.061     -6307.8007      14598.45     
     38000   480.31875     -12154.004     -12154.004     -12046.781     -2828.9639      14610.277    
     38100   482.57623     -12160.781     -12160.781     -12053.055      723.95554      14604.723    
     38200   479.99211     -12157.515     -12157.515     -12050.366     -8012.9243      14602.432    
     38300   487.6293      -12154.205     -12154.205     -12045.351     -1953.5697      14590.499    
     38400   507.16826     -12154.48      -12154.48      -12041.264      12245.769      14587.538    
     38500   504.89707     -12151.929     -12151.929     -12039.219     -201.00508      14599.201    
     38600   504.49403     -12153.036     -12153.036     -12040.417     -39545.807      14619.147    
     38700   492.69338     -12154.249     -12154.249     -12044.264      453.07556      14603.648    
     38800   487.38397     -12156.409     -12156.409     -12047.609      2484.4784      14588.015    
     38900   482.4601      -12157.911     -12157.911     -12050.211      18319.435      14586.011    
     39000   482.08752     -12155.334     -12155.334     -12047.717     -8415.4493      14593.317    
     39100   497.87127     -12153.955     -12153.955     -12042.814     -11193.955      14600.918    
     39200   509.95495     -12154.276     -12154.276     -12040.438      4500.0137      14583.49     
     39300   514.97709     -12153.768     -12153.768     -12038.808      10951.51       14595.918    
     39400   512.30275     -12152.196     -12152.196     -12037.834      11616.579      14578.06     
     39500   486.02746     -12149.619     -12149.619     -12041.122      6079.0102      14589.287    
     39600   503.04632     -12156.496     -12156.496     -12044.2        24078.965      14576.32     
     39700   491.74453     -12156.493     -12156.493     -12046.719     -11041.532      14599.155    
     39800   485.7871      -12154.585     -12154.585     -12046.142     -4185.5077      14609.849    
     39900   505.47562     -12152.154     -12152.154     -12039.315      11899.855      14607.98     
     40000   517.58144     -12155.043     -12155.043     -12039.502     -3278.4096      14613.334    
     40100   506.16025     -12155.666     -12155.666     -12042.674     -19504.86       14623.408    
     40200   481.60669     -12152.164     -12152.164     -12044.654      19469.481      14611.239    
     40300   498.9334      -12154.815     -12154.815     -12043.437      4434.5686      14610.089    
     40400   509.65347     -12151.785     -12151.785     -12038.014      3646.5464      14608.143    
     40500   502.30838     -12149.257     -12149.257     -12037.126     -4573.3127      14617.929    
     40600   505.23706     -12153.606     -12153.606     -12040.821     -7907.4921      14620.263    
     40700   497.64164     -12155.61      -12155.61      -12044.52      -5504.0692      14614.032    
     40800   492.09489     -12154.524     -12154.524     -12044.672     -679.52586      14621.162    
     40900   497.90192     -12153.862     -12153.862     -12042.714      7009.4879      14605.918    
     41000   514.48712     -12154.283     -12154.283     -12039.432     -1392.7225      14617.079    
     41100   502.02363     -12151.079     -12151.079     -12039.011      187.04111      14603.372    
     41200   512.72438     -12155.943     -12155.943     -12041.487      19873.929      14594.423    
     41300   493.05089     -12155.934     -12155.934     -12045.869     -15554.312      14611.268    
     41400   488.92825     -12155.624     -12155.624     -12046.48       2590.3707      14613.693    
     41500   503.34956     -12154.643     -12154.643     -12042.279      2633.1063      14610.148    
     41600   492.11026     -12149.072     -12149.072     -12039.217      1828.9087      14606.297    
     41700   498.80561     -12150.63      -12150.63      -12039.28      -15601.723      14632.62     
     41800   509.86497     -12155.325     -12155.325     -12041.507     -7835.7671      14626.751    
     41900   504.51914     -12156.533     -12156.533     -12043.908      15698.726      14617.032    
     42000   503.77902     -12156.309     -12156.309     -12043.849     -21923.677      14600.272    
     42100   504.1109      -12156.237     -12156.237     -12043.703     -5898.9884      14603.97     
     42200   503.80915     -12154.973     -12154.973     -12042.506     -11310.22       14610.296    
     42300   502.26549     -12153.577     -12153.577     -12041.455      295.21528      14596.722    
     42400   505.03658     -12153.805     -12153.805     -12041.065     -13286.489      14594.899    
     42500   501.51755     -12152.402     -12152.402     -12040.448     -3523.3273      14591.619    
     42600   510.91348     -12154.725     -12154.725     -12040.673     -3496.3681      14587.338    
     42700   499.20117     -12155.83      -12155.83      -12044.392     -16562.021      14596.49     
     42800   476.92741     -12153.549     -12153.549     -12047.083     -2153.3796      14606.867    
     42900   499.16893     -12155.575     -12155.575     -12044.145      5580.3937      14582.75     
     43000   507.68993     -12152.372     -12152.372     -12039.039      1290.0167      14594.175    
     43100   493.48802     -12150.312     -12150.312     -12040.15       128.313        14605.18     
     43200   502.44081     -12154.314     -12154.314     -12042.153     -13063.65       14597.727    
     43300   500.18809     -12156.987     -12156.987     -12045.329      10936.926      14588.6      
     43400   479.11139     -12152.899     -12152.899     -12045.946     -11417.016      14578.749    
     43500   499.37801     -12151.153     -12151.153     -12039.676      1673.8634      14583.889    
     43600   514.69289     -12152.442     -12152.442     -12037.546     -11239.515      14602.84     
     43700   513.76296     -12154.504     -12154.504     -12039.815     -11498.974      14606.242    
     43800   505.75184     -12156.276     -12156.276     -12043.376     -15748.167      14583.244    
     43900   484.29029     -12153.194     -12153.194     -12045.085      13752.034      14570.897    
     44000   502.45822     -12155.761     -12155.761     -12043.596      7459.5305      14580.706    
     44100   501.80336     -12153.581     -12153.581     -12041.563     -13182.149      14606.209    
     44200   503.54881     -12151.852     -12151.852     -12039.443      7366.1806      14614.907    
     44300   504.49403     -12153.152     -12153.152     -12040.532     -1527.665       14592.463    
     44400   500.41736     -12158.77      -12158.77      -12047.061     -9546.4614      14606.16     
     44500   503.59194     -12160.557     -12160.557     -12048.139     -14788.834      14610.251    
     44600   481.25167     -12152.929     -12152.929     -12045.499     -1554.6328      14607.671    
     44700   495.7444      -12152.003     -12152.003     -12041.337      602.46594      14600.755    
     44800   499.18791     -12152.691     -12152.691     -12041.256     -6982.8801      14617.315    
     44900   509.45783     -12155.359     -12155.359     -12041.631     -3098.5583      14608.472    
     45000   491.00763     -12156.381     -12156.381     -12046.773     -8356.1489      14605.441    
     45100   484.9075      -12155.967     -12155.967     -12047.72      -3771.7036      14592.778    
     45200   483.42968     -12152.699     -12152.699     -12044.781     -10567.044      14572.064    
     45300   503.90003     -12155.297     -12155.297     -12042.811      2139.9947      14575.632    
     45400   503.16181     -12153.219     -12153.219     -12040.897     -17007.922      14592.732    
     45500   502.15305     -12152.132     -12152.132     -12040.035      16224.461      14598.867    
     45600   490.48042     -12152.096     -12152.096     -12042.605     -11248.322      14600.098    
     45700   487.054       -12155.663     -12155.663     -12046.937     -3905.4059      14596.631    
     45800   496.50531     -12158.236     -12158.236     -12047.4        829.61165      14580.899    
     45900   503.18564     -12155.351     -12155.351     -12043.024      1723.8575      14582.77     
     46000   493.93761     -12149.463     -12149.463     -12039.2        5085.3946      14585.907    
     46100   492.72474     -12149.616     -12149.616     -12039.624      11726.882      14600.982    
     46200   500.46255     -12152.907     -12152.907     -12041.188      17919.079      14599.846    
     46300   487.14678     -12153.993     -12153.993     -12045.246      2883.1848      14603.864    
     46400   490.65489     -12156.309     -12156.309     -12046.779     -629.9649       14619.193    
     46500   501.42088     -12155.149     -12155.149     -12043.216     -9101.4703      14623.636    
     46600   505.11841     -12150.106     -12150.106     -12037.347     -25274.398      14627.227    
     46700   513.25997     -12152.834     -12152.834     -12038.258     -11026.145      14603.296    
     46800   494.60385     -12153.139     -12153.139     -12042.728      4228.1409      14586.815    
     46900   502.42023     -12156.592     -12156.592     -12044.436     -6466.7224      14598.927    
     47000   490.43919     -12153.981     -12153.981     -12044.5        25284.706      14592.215    
     47100   499.71778     -12154.572     -12154.572     -12043.018      9428.5445      14596.642    
     47200   513.7786      -12152.068     -12152.068     -12037.376      5459.8356      14590.672    
     47300   506.26693     -12149.43      -12149.43      -12036.415      3503.2546      14602.086    
     47400   505.89684     -12153.635     -12153.635     -12040.702     -8654.9691      14608.282    
     47500   496.29332     -12154.202     -12154.202     -12043.414     -11310.948      14614.08     
     47600   509.94633     -12156.784     -12156.784     -12042.947      3983.8294      14620.934    
     47700   510.8749      -12156.473     -12156.473     -12042.43       964.53751      14617.615    
     47800   490.431       -12150.735     -12150.735     -12041.255     -13294.007      14617.795    
     47900   516.56382     -12153.317     -12153.317     -12038.003      11338.529      14591.325    
     48000   513.60983     -12153.274     -12153.274     -12038.62      -4242.0954      14607.777    
     48100   486.03241     -12151.577     -12151.577     -12043.079     -5922.4664      14609.223    
     48200   491.7793      -12154.614     -12154.614     -12044.833      7109.4538      14601.753    
     48300   505.5048      -12155.819     -12155.819     -12042.974     -9340.8131      14602.976    
     48400   505.43347     -12154.656     -12154.656     -12041.827      3442.4052      14585.472    
     48500   488.20702     -12151.465     -12151.465     -12042.482      6608.4278      14607.018    
     48600   496.81883     -12153.469     -12153.469     -12042.563      12723.627      14600.241    
     48700   488.69287     -12151.108     -12151.108     -12042.016     -8104.2582      14618.329    
     48800   500.15505     -12152.856     -12152.856     -12041.205      9173.4899      14591.848    
     48900   518.44292     -12154.036     -12154.036     -12038.302     -9301.4658      14588.97     
     49000   503.63146     -12151.67      -12151.67      -12039.243      17827.27       14591.929    
     49100   497.62856     -12153.785     -12153.785     -12042.699     -3082.9747      14603.803    
     49200   485.8511      -12154.201     -12154.201     -12045.743     -7762.5141      14616.787    
     49300   498.46352     -12157.804     -12157.804     -12046.53       14156.156      14601.927    
     49400   500.7284      -12154.976     -12154.976     -12043.197      1770.2484      14605.398    
     49500   503.80871     -12151.954     -12151.954     -12039.488      10396.503      14588.098    
     49600   507.884       -12152.866     -12152.866     -12039.49       10422.188      14587.41     
     49700   482.13889     -12150.458     -12150.458     -12042.829      2667.962       14601.128    
     49800   494.62106     -12156.911     -12156.911     -12046.495     -1644.5657      14601.287    
     49900   489.89846     -12157.554     -12157.554     -12048.193      16803.518      14593.064    
     50000   493.54987     -12155.583     -12155.583     -12045.407     -2682.5422      14598.038    
     50100   508.85968     -12157.759     -12157.759     -12044.165      2843.6735      14588.279    
     50200   479.913       -12149.504     -12149.504     -12042.372      21930.351      14586.756    
     50300   514.73192     -12153.69      -12153.69      -12038.786     -9464.538       14607.691    
     50400   502.67977     -12152.502     -12152.502     -12040.288     -6971.1012      14602.636    
     50500   505.73967     -12156.595     -12156.595     -12043.698      807.1815       14600.717    
     50600   489.8671      -12154.866     -12154.866     -12045.512      7397.1855      14582.504    
     50700   491.23433     -12154.536     -12154.536     -12044.876      1601.43        14600.576    
     50800   498.53405     -12153.756     -12153.756     -12042.467      4923.642       14603.274    
     50900   503.36115     -12151.918     -12151.918     -12039.552     -18064.288      14611.071    
     51000   515.51703     -12152.24      -12152.24      -12037.16       3602.0861      14604.354    
     51100   504.48958     -12153.001     -12153.001     -12040.382     -12135.396      14601.398    
     51200   491.11309     -12155.294     -12155.294     -12045.662      3378.691       14600.155    
     51300   500.2082      -12156.875     -12156.875     -12045.212      3536.1979      14611.514    
     51400   509.35172     -12155.45      -12155.45      -12041.747      15051.693      14598.314    
     51500   506.23379     -12152.057     -12152.057     -12039.05      -2532.025       14604.665    
     51600   504.89177     -12152.396     -12152.396     -12039.688      17636.797      14608.197    
     51700   483.34281     -12154.697     -12154.697     -12046.8        9052.6569      14595.18     
     51800   507.2354      -12159.74      -12159.74      -12046.508      9735.3652      14592.032    
     51900   494.2421      -12154.778     -12154.778     -12044.447     -2635.1208      14600.604    
     52000   499.83716     -12152.801     -12152.801     -12041.221     -8656.6555      14608.748    
     52100   499.5043      -12150.843     -12150.843     -12039.337      8533.4268      14614.808    
     52200   501.7222      -12154.252     -12154.252     -12042.251     -8442.8058      14612.61     
     52300   493.17338     -12156.822     -12156.822     -12046.73       5226.5127      14593.267    
     52400   489.79979     -12155.906     -12155.906     -12046.567     -18452.573      14584.954    
     52500   496.04408     -12153.229     -12153.229     -12042.496      16323.099      14585.334    
     52600   508.97707     -12152.459     -12152.459     -12038.839     -20768.734      14605.865    
     52700   512.41878     -12153.186     -12153.186     -12038.798     -12696.202      14609.53     
     52800   502.15102     -12152.588     -12152.588     -12040.491     -10604.073      14605.364    
     52900   503.90149     -12153.648     -12153.648     -12041.16       5233.6305      14604.733    
     53000   501.85132     -12156.505     -12156.505     -12044.476     -1818.9068      14600.381    
     53100   491.35193     -12159.587     -12159.587     -12049.901     -1482.9059      14608.643    
     53200   478.98383     -12155.539     -12155.539     -12048.615     -5231.5649      14603.154    
     53300   489.00947     -12153.186     -12153.186     -12044.023      14049.105      14595.055    
     53400   495.14429     -12152.175     -12152.175     -12041.643     -6619.3503      14618.116    
     53500   511.25032     -12155.447     -12155.447     -12041.32      -10079.805      14613.896    
     53600   487.02342     -12152.523     -12152.523     -12043.804      11255.215      14603.465    
     53700   510.69643     -12158.638     -12158.638     -12044.634      10558.628      14583.703    
     53800   486.84943     -12154.07      -12154.07      -12045.389      1160.1868      14607.061    
     53900   506.12788     -12155.173     -12155.173     -12042.189      9125.1809      14604.186    
     54000   511.45289     -12153.853     -12153.853     -12039.68       14138.164      14611.514    
     54100   508.73599     -12151.505     -12151.505     -12037.939     -9088.8983      14617.5      
     54200   502.12254     -12150.738     -12150.738     -12038.648     -3595.6826      14596.264    
     54300   499.8176      -12155.872     -12155.872     -12044.297     -620.28857      14591.615    
     54400   489.06251     -12156.005     -12156.005     -12046.83       28430.962      14576.812    
     54500   487.12063     -12153.709     -12153.709     -12044.968      22453.822      14580.243    
     54600   506.08408     -12153.919     -12153.919     -12040.945      21403.151      14581.017    
     54700   493.83007     -12151.427     -12151.427     -12041.188      24664.31       14603.086    
     54800   502.10467     -12153.495     -12153.495     -12041.409     -6.1430165      14604.464    
     54900   486.63845     -12150.914     -12150.914     -12042.281     -11457.608      14611.705    
     55000   495.50515     -12155.014     -12155.014     -12044.401      11382.468      14581.815    
     55100   487.11016     -12156.391     -12156.391     -12047.652     -12428.7        14586.889    
     55200   496.115       -12156.269     -12156.269     -12045.52       16154.965      14576.934    
     55300   503.57626     -12153.546     -12153.546     -12041.132      1198.6969      14592.027    
     55400   507.82179     -12153.651     -12153.651     -12040.289     -8776.8967      14605.758    
     55500   514.49544     -12156.505     -12156.505     -12041.653      1943.9101      14614.539    
     55600   516.46965     -12159.848     -12159.848     -12044.556      2676.3407      14616.904    
     55700   478.271       -12156.788     -12156.788     -12050.023      12586.685      14609.805    
     55800   500.92153     -12159.891     -12159.891     -12048.069      496.82675      14627.115    
     55900   500.50018     -12157.053     -12157.053     -12045.325     -17149.14       14636.508    
     56000   502.487       -12155.988     -12155.988     -12043.817     -10421.909      14625.637    
     56100   509.05192     -12154.67      -12154.67      -12041.034      31106.934      14585.817    
     56200   502.75819     -12153.644     -12153.644     -12041.413     -906.99607      14592.329    
     56300   491.885       -12154.217     -12154.217     -12044.413      2291.69        14602.378    
     56400   485.00537     -12157.927     -12157.927     -12049.658      5958.0176      14590.909    
     56500   481.71        -12156.277     -12156.277     -12048.744      1552.7633      14601.95     
     56600   490.947       -12153.706     -12153.706     -12044.111      683.38798      14593.087    
     56700   508.12468     -12154.626     -12154.626     -12041.196     -12896.18       14592.871    
     56800   507.91109     -12153.231     -12153.231     -12039.849     -28210.794      14589.62     
     56900   504.67021     -12154.017     -12154.017     -12041.358      17726.32       14573.461    
     57000   495.7348      -12156.249     -12156.249     -12045.585     -1951.5621      14587.4      
     57100   491.84749     -12158.444     -12158.444     -12048.648     -7408.7807      14593.529    
     57200   489.4813      -12155.371     -12155.371     -12046.103     -17194.321      14615.249    
     57300   502.20996     -12153.122     -12153.122     -12041.013      10172.56       14593.285    
     57400   511.56253     -12155.364     -12155.364     -12041.167      16090.032      14596.051    
     57500   500.69631     -12154.552     -12154.552     -12042.78      -10187.767      14607.771    
     57600   509.07958     -12157.713     -12157.713     -12044.07       6578.7992      14603.091    
     57700   483.05561     -12155.355     -12155.355     -12047.522     -13354.411      14608.08     
     57800   484.39214     -12156.987     -12156.987     -12048.855     -245.62507      14590.421    
     57900   496.40761     -12154.514     -12154.514     -12043.7        17670.434      14606.508    
     58000   497.92925     -12151.485     -12151.485     -12040.331     -6112.395       14615.877    
     58100   495.02792     -12150.608     -12150.608     -12040.102     -30148.439      14633.919    
     58200   502.02912     -12154.071     -12154.071     -12042.001      2822.4002      14607.369    
     58300   480.85265     -12153.825     -12153.825     -12046.483      7927.1184      14608.183    
     58400   495.13761     -12156.808     -12156.808     -12046.278      5515.0487      14617.047    
     58500   500.45912     -12151.773     -12151.773     -12040.054     -811.18832      14624.718    
     58600   496.52563     -12148.358     -12148.358     -12037.518     -727.89796      14642.13     
     58700   510.92888     -12154.171     -12154.171     -12040.115     -13320.937      14611.842    
     58800   482.62523     -12151.849     -12151.849     -12044.111      20029.897      14581.015    
     58900   506.33073     -12156.681     -12156.681     -12043.651      1769.2106      14579.309    
     59000   506.53782     -12154.812     -12154.812     -12041.736     -7927.2012      14596.316    
     59100   515.64758     -12152.502     -12152.502     -12037.393     -24547.332      14611.918    
     59200   500.51855     -12147.692     -12147.692     -12035.96      -6121.1015      14601.443    
     59300   499.13442     -12152.457     -12152.457     -12041.034      13180.496      14576.173    
     59400   489.41197     -12152.552     -12152.552     -12043.3       -12128.198      14585.591    
     59500   496.84986     -12153.299     -12153.299     -12042.386      9593.1354      14569.102    
     59600   502.70422     -12153.093     -12153.093     -12040.874     -26309.121      14600.983    
     59700   507.0534      -12150.601     -12150.601     -12037.41      -22562.279      14597.441    
     59800   507.54036     -12150.472     -12150.472     -12037.172      3617.8986      14601.157    
     59900   500.18468     -12155.151     -12155.151     -12043.493      11748.444      14591.634    
     60000   493.40088     -12155.676     -12155.676     -12045.533     -1502.9487      14609.861    
     60100   503.74671     -12156.034     -12156.034     -12043.581      142.91557      14611.02     
     60200   498.59519     -12152.23      -12152.23      -12040.927     -11060.263      14625.438    
     60300   513.78218     -12153.846     -12153.846     -12039.154     -14429.465      14619.29     
     60400   507.08769     -12150.225     -12150.225     -12037.027     -13465.754      14611.647    
     60500   503.40648     -12152.24      -12152.24      -12039.864      11614.282      14604.24     
     60600   500.43576     -12155.47      -12155.47      -12043.756      7647.2706      14606.504    
     60700   482.68679     -12153.876     -12153.876     -12046.124     -13523.738      14626.995    
     60800   499.06535     -12155.063     -12155.063     -12043.655      9280.2522      14611.231    
     60900   504.42279     -12152.225     -12152.225     -12039.621      3170.6076      14617.824    
     61000   512.68011     -12151.329     -12151.329     -12036.883      3612.0533      14600.944    
     61100   517.87005     -12152.058     -12152.058     -12036.453      7038.644       14607.779    
     61200   504.06728     -12153.118     -12153.118     -12040.593     -17059.583      14599.932    
     61300   493.15225     -12154.564     -12154.564     -12044.476      16500.671      14592.899    
     61400   492.84864     -12156.213     -12156.213     -12046.193     -12245.346      14598.626    
     61500   494.79199     -12156.014     -12156.014     -12045.561      39.622655      14583.047    
     61600   498.12934     -12151.933     -12151.933     -12040.735      19584.847      14573.541    
     61700   491.84518     -12148.267     -12148.267     -12038.471      8627.8483      14574.036    
     61800   518.64664     -12154.554     -12154.554     -12038.776     -19786.016      14593.21     
     61900   506.76705     -12153.529     -12153.529     -12040.402      12002.997      14597.024    
     62000   510.71409     -12155.957     -12155.957     -12041.949      7913.5946      14590.547    
     62100   491.11886     -12151.723     -12151.723     -12042.089      13156.208      14607.553    
     62200   495.20816     -12151.542     -12151.542     -12040.996     -9994.1083      14594.102    
     62300   510.14754     -12154.817     -12154.817     -12040.936      14344.174      14588.221    
     62400   502.79196     -12155.048     -12155.048     -12042.809     -2739.135       14589.19     
     62500   492.40799     -12155.233     -12155.233     -12045.311     -9109.4231      14591.282    
     62600   495.8351      -12158.605     -12158.605     -12047.918     -15104.089      14602.151    
     62700   492.71555     -12155.268     -12155.268     -12045.278      1949.5302      14601.962    
     62800   497.53778     -12151.519     -12151.519     -12040.453     -6315.5776      14618.165    
     62900   505.99612     -12151.941     -12151.941     -12038.987     -1170.9407      14612.198    
     63000   498.54188     -12151.897     -12151.897     -12040.606      10264.695      14611.691    
     63100   498.78432     -12155.972     -12155.972     -12044.627      7927.362       14606.64     
     63200   493.60885     -12158.18      -12158.18      -12047.991     -9223.0873      14610.883    
     63300   481.1145      -12154.297     -12154.297     -12046.897     -11672.586      14618.799    
     63400   506.09856     -12157.358     -12157.358     -12044.38      -5010.3271      14604.495    
     63500   496.6688      -12153.508     -12153.508     -12042.635      16689.611      14596.002    
     63600   502.30485     -12151.529     -12151.529     -12039.398     -7495.7885      14599.544    
     63700   500.62801     -12149.783     -12149.783     -12038.027     -12411.401      14624.801    
     63800   502.41447     -12153.881     -12153.881     -12041.726      7361.074       14608.506    
     63900   484.27217     -12154.733     -12154.733     -12046.627     -1867.8577      14625.728    
     64000   494.4624      -12155.298     -12155.298     -12044.918     -3456.5995      14620.049    
     64100   498.92929     -12153.009     -12153.009     -12041.632     -3900.9589      14603.519    
     64200   506.20221     -12153.084     -12153.084     -12040.083      2018.1374      14581.448    
     64300   504.67393     -12150.889     -12150.889     -12038.229     -16604.811      14573.487    
     64400   515.23073     -12152.998     -12152.998     -12037.982     -17700.124      14596.38     
     64500   492.59152     -12152.328     -12152.328     -12042.366      8870.5382      14582.987    
     64600   489.4631      -12154.147     -12154.147     -12044.883      7696.2451      14601.202    
     64700   486.54116     -12153.766     -12153.766     -12045.154     -4647.9039      14603.825    
     64800   510.45073     -12154.685     -12154.685     -12040.736     -15547.332      14611.272    
     64900   509.52332     -12150.518     -12150.518     -12036.776      8737.6228      14605.036    
     65000   506.46693     -12151.221     -12151.221     -12038.161     -16356.316      14603.35     
     65100   512.62988     -12154.837     -12154.837     -12040.401     -15018.711      14618.079    
     65200   498.00148     -12153.905     -12153.905     -12042.735      10622.224      14612.954    
     65300   502.8409      -12155.09      -12155.09      -12042.84       13688.341      14622.15     
     65400   499.48345     -12153.104     -12153.104     -12041.604      817.53265      14601.229    
     65500   502.51343     -12152.152     -12152.152     -12039.975      15818.161      14608.022    
     65600   503.58545     -12151.176     -12151.176     -12038.76       6415.9706      14625.205    
     65700   501.47752     -12153.335     -12153.335     -12041.39      -13160.865      14652.892    
     65800   484.90478     -12153.744     -12153.744     -12045.497     -1991.3797      14628.857    
     65900   495.4207      -12156.417     -12156.417     -12045.824      4219.3505      14598.111    
     66000   489.58728     -12152.249     -12152.249     -12042.958      3714.271       14589.284    
     66100   504.86687     -12150.365     -12150.365     -12037.663     -648.95038      14593.931    
     66200   511.20893     -12152.001     -12152.001     -12037.883     -1739.5438      14584.415    
     66300   498.53163     -12152.67      -12152.67      -12041.382      13267.397      14575.359    
     66400   490.47977     -12152.893     -12152.893     -12043.402     -9392.7937      14594.327    
     66500   500.30832     -12154.761     -12154.761     -12043.076     -6192.3905      14605.635    
     66600   506.14359     -12154.47      -12154.47      -12041.483     -5759.4517      14595.93     
     66700   497.50966     -12152.92      -12152.92      -12041.859     -411.91707      14586.457    
     66800   498.60659     -12153.106     -12153.106     -12041.801     -138.35148      14593.104    
     66900   505.50919     -12155.047     -12155.047     -12042.201      12375.237      14590.606    
     67000   494.73896     -12154.944     -12154.944     -12044.502     -9300.7625      14603.465    
     67100   482.95524     -12154.192     -12154.192     -12046.38      -11935.156      14589.832    
     67200   491.81979     -12156.142     -12156.142     -12046.352     -3901.4679      14592.685    
     67300   497.92433     -12153.299     -12153.299     -12042.146      26724.64       14575.78     
     67400   497.66084     -12149.624     -12149.624     -12038.53       9398.3003      14570.742    
     67500   505.7276      -12152.38      -12152.38      -12039.485      17360.301      14573.85     
     67600   499.27482     -12154.156     -12154.156     -12042.702     -10263.255      14598.92     
     67700   493.9179      -12154.954     -12154.954     -12044.696      6623.3286      14610.013    
     67800   494.93252     -12154.255     -12154.255     -12043.77       22531.384      14601.841    
     67900   497.69361     -12154.097     -12154.097     -12042.996     -13361.803      14625.61     
     68000   489.85082     -12153.02      -12153.02      -12043.669     -7427.0606      14628.681    
     68100   496.83465     -12153.62      -12153.62      -12042.71       9170.2409      14600.199    
     68200   522.22477     -12155.666     -12155.666     -12039.088     -27693.601      14610.183    
     68300   512.57723     -12152.949     -12152.949     -12038.525     -4477.5577      14608.29     
     68400   489.47772     -12153.196     -12153.196     -12043.929     -1983.2266      14617.184    
     68500   506.03273     -12158.756     -12158.756     -12045.793     -17536.036      14612.149    
     68600   505.74707     -12157.679     -12157.679     -12044.78      -6494.2368      14601.59     
     68700   480.92886     -12149.805     -12149.805     -12042.446      25389.387      14590.084    
     68800   502.6739      -12151.223     -12151.223     -12039.01      -23251.864      14602.26     
     68900   509.87682     -12147.859     -12147.859     -12034.038      13009.015      14604.802    
     69000   525.77201     -12148.115     -12148.115     -12030.746      2147.6305      14596.135    
     69100   512.10665     -12151.506     -12151.506     -12037.188      14232.642      14603.457    
     69200   497.92572     -12151.701     -12151.701     -12040.548     -15291.651      14605.576    
     69300   518.09954     -12159.147     -12159.147     -12043.491      3269.4976      14598.456    
     69400   496.41655     -12157.152     -12157.152     -12046.335     -10379.72       14595.3      
     69500   480.07039     -12154.111     -12154.111     -12046.944     -5576.348       14590.51     
     69600   513.69976     -12156.06      -12156.06      -12041.386      4778.9288      14596.048    
     69700   499.92237     -12150.946     -12150.946     -12039.348      10501.965      14602.905    
     69800   496.29016     -12151.697     -12151.697     -12040.909     -17633.766      14615.263    
     69900   499.56623     -12155.251     -12155.251     -12043.731      13326.023      14596.411    
     70000   491.18259     -12156.034     -12156.034     -12046.387     -9947.7124      14602.489    
     70100   512.00653     -12159.431     -12159.431     -12045.134      4003.89        14595.911    
     70200   481.85983     -12150.614     -12150.614     -12043.047     -7052.6203      14608.119    
     70300   505.49386     -12153.861     -12153.861     -12041.018      11266.875      14596.197    
     70400   497.07388     -12153.227     -12153.227     -12042.264     -10687.364      14610.145    
     70500   505.79282     -12155.809     -12155.809     -12042.899     -5750.4605      14596.838    
     70600   498.8315      -12154.232     -12154.232     -12042.877      1231.3572      14604.465    
     70700   517.36737     -12158.001     -12158.001     -12042.508     -10498.779      14603.012    
     70800   488.11618     -12153.081     -12153.081     -12044.118      13756.216      14601.433    
     70900   510.75236     -12154.378     -12154.378     -12040.362      2706.8217      14593.693    
     71000   503.23585     -12151.425     -12151.425     -12039.086      12838.739      14584.703    
     71100   496.37886     -12151.716     -12151.716     -12040.908     -27330.423      14592.862    
     71200   490.51348     -12156.701     -12156.701     -12047.203      5174.0115      14607.588    
     71300   497.2714      -12158.607     -12158.607     -12047.6       -3960.6542      14604.034    
     71400   497.16804     -12155.588     -12155.588     -12044.604     -26361.266      14606.747    
     71500   509.15311     -12154.573     -12154.573     -12040.914      17680.921      14594.709    
     71600   491.70583     -12150.363     -12150.363     -12040.599     -12704.698      14604.416    
     71700   515.32262     -12155.2       -12155.2       -12040.163     -11666.287      14595.117    
     71800   498.62605     -12153.366     -12153.366     -12042.056     -3590.1715      14594.517    
     71900   501.72863     -12155.463     -12155.463     -12043.461     -11519.861      14606.82     
     72000   488.01842     -12155.185     -12155.185     -12046.243     -5895.6483      14611.893    
     72100   496.20907     -12159.019     -12159.019     -12048.249      11675.739      14599.063    
     72200   501.63212     -12156.909     -12156.909     -12044.929      1523.9979      14628.164    
     72300   495.52899     -12151.897     -12151.897     -12041.279     -10326.168      14618.523    
     72400   508.21707     -12153.013     -12153.013     -12039.563     -15937.374      14614.587    
     72500   492.43536     -12151.969     -12151.969     -12042.041      6581.9864      14592.556    
     72600   491.19939     -12155.709     -12155.709     -12046.058     -6723.2778      14612.115    
     72700   480.88544     -12154.875     -12154.875     -12047.526      2541.9062      14596.101    
     72800   496.75577     -12157.142     -12157.142     -12046.25       7281.687       14589.272    
     72900   487.17437     -12150.874     -12150.874     -12042.121      4951.2218      14605.986    
     73000   497.25264     -12150.129     -12150.129     -12039.126     -1190.4352      14594.357    
     73100   503.30792     -12149.958     -12149.958     -12037.604      9557.1707      14595.348    
     73200   511.07149     -12153.543     -12153.543     -12039.455      11785.474      14584.212    
     73300   479.34933     -12152.279     -12152.279     -12045.272      9768.4444      14583.105    
     73400   504.06636     -12156.833     -12156.833     -12044.309     -1034.7514      14584.547    
     73500   504.83176     -12155.975     -12155.975     -12043.28      -8413.4329      14600.668    
[...]
    566300   497.43742     -12154.563     -12154.563     -12043.519      9386.9642      14596.299    
    566400   506.84909     -12150.778     -12150.778     -12037.633      1816.0719      14598.032    
    566500   508.94146     -12150.166     -12150.166     -12036.554     -11518.388      14603.057    
    566600   499.26986     -12150.685     -12150.685     -12039.232     -21085.037      14605.243    
    566700   508.47029     -12155.494     -12155.494     -12041.987      8598.0076      14592.463    
    566800   494.83399     -12154.635     -12154.635     -12044.172      5456.679       14596.907    
    566900   502.03121     -12155.715     -12155.715     -12043.645      14696.117      14596.757    
    567000   505.3697      -12155.123     -12155.123     -12042.308      13828.068      14585.598    
    567100   497.58803     -12153.616     -12153.616     -12042.538      24072.31       14591.869    
    567200   504.10805     -12154.074     -12154.074     -12041.541      28131.722      14586.3      
    567300   487.64019     -12151.081     -12151.081     -12042.224     -2094.2783      14604.246    
    567400   502.74217     -12153.828     -12153.828     -12041.6       -2779.2514      14619.172    
    567500   507.18684     -12153.948     -12153.948     -12040.728     -12251.815      14622.852    
    567600   506.45724     -12153.982     -12153.982     -12040.924     -595.80042      14621.669    
    567700   495.06588     -12154.493     -12154.493     -12043.978      26060.663      14591.117    
    567800   488.60034     -12155.213     -12155.213     -12046.142     -3008.5305      14585.745    
    567900   501.40674     -12157.015     -12157.015     -12045.085      15292.046      14561.756    
    568000   518.95062     -12155.379     -12155.379     -12039.532     -6432.7706      14587.187    
    568100   497.23697     -12149.687     -12149.687     -12038.687      13412.616      14593.616    
    568200   502.83924     -12152.154     -12152.154     -12039.904     -14048.004      14580.711    
    568300   493.38029     -12153.754     -12153.754     -12043.615      20656.053      14572.404    
    568400   504.64522     -12157.005     -12157.005     -12044.352     -32280.716      14590.131    
    568500   515.54733     -12154.741     -12154.741     -12039.655      5285.8128      14579.679    
    568600   513.76963     -12149.891     -12149.891     -12035.201      9531.5646      14598.911    
    568700   510.20936     -12152.687     -12152.687     -12038.792     -2530.6976      14602.588    
    568800   511.32596     -12156.252     -12156.252     -12042.107      4723.7949      14613.569    
    568900   491.43947     -12154.142     -12154.142     -12044.437      9091.6796      14608.051    
    569000   486.17803     -12154.461     -12154.461     -12045.931      864.01557      14620.099    
    569100   505.61961     -12156.553     -12156.553     -12043.682      5308.6262      14609.187    
    569200   514.36147     -12153.064     -12153.064     -12038.242     -16354.144      14614.138    
    569300   520.2298      -12153.62      -12153.62      -12037.487      34437.371      14594.772    
    569400   498.11845     -12152.956     -12152.956     -12041.76      -15096.103      14615.82     
    569500   499.00207     -12155.25      -12155.25      -12043.857      4121.8872      14611.561    
    569600   493.82256     -12154.87      -12154.87      -12044.633     -6739.4315      14605.36     
    569700   502.44659     -12156.194     -12156.194     -12044.032     -9490.4239      14605.059    
    569800   517.3934      -12153.994     -12153.994     -12038.495     -25386.251      14616.464    
    569900   509.56381     -12150.107     -12150.107     -12036.356     -5835.3237      14598.95     
    570000   520.26175     -12155.088     -12155.088     -12038.948     -5122.8225      14580.169    
    570100   493.667       -12152.644     -12152.644     -12042.442     -1559.9385      14599.505    
    570200   491.90719     -12151.854     -12151.854     -12042.044      15623.963      14596.957    
    570300   488.12363     -12150.418     -12150.418     -12041.453     -9112.899       14619.576    
    570400   499.97455     -12153.821     -12153.821     -12042.211     -13043.357      14629.372    
    570500   484.16335     -12153.927     -12153.927     -12045.846      8096.3001      14614.777    
    570600   488.51991     -12156.483     -12156.483     -12047.43      -2273.5002      14604.242    
    570700   502.81451     -12157.431     -12157.431     -12045.187      6842.5135      14596.76     
    570800   503.48901     -12152.489     -12152.489     -12040.094     -11865.398      14596.02     
    570900   495.90963     -12150.065     -12150.065     -12039.362      22792.094      14590.957    
    571000   509.5089      -12153.71      -12153.71      -12039.971      12576.192      14596.21     
    571100   498.96176     -12154.532     -12154.532     -12043.148     -12805.511      14609.156    
    571200   490.45268     -12158.156     -12158.156     -12048.671     -15313.484      14606.307    
    571300   493.35695     -12158.304     -12158.304     -12048.171      22769.435      14565.091    
    571400   486.66483     -12154.52      -12154.52      -12045.88      -4280.0186      14584.081    
    571500   493.04233     -12151.341     -12151.341     -12041.278     -5715.4048      14587.301    
    571600   507.15235     -12153.818     -12153.818     -12040.606      5822.6009      14610.013    
    571700   505.61174     -12154.691     -12154.691     -12041.823     -8396.7892      14606.56     
    571800   482.1435      -12152.596     -12152.596     -12044.966      5323.917       14609.779    
    571900   486.8286      -12157.516     -12157.516     -12048.84      -22126.898      14607.669    
    572000   488.79963     -12159.663     -12159.663     -12050.547      1985.6158      14594.478    
    572100   489.55595     -12153.493     -12153.493     -12044.208     -19924.599      14605.462    
    572200   505.16433     -12154.173     -12154.173     -12041.404      1358.9085      14581.583    
    572300   486.93421     -12150.155     -12150.155     -12041.456     -4691.6078      14597.177    
    572400   502.53055     -12152.995     -12152.995     -12040.814      6011.5881      14594.224    
    572500   505.68636     -12152.773     -12152.773     -12039.888     -12189.315      14598.917    
    572600   516.1139      -12155.871     -12155.871     -12040.658     -3844.7789      14599.065    
    572700   495.9811      -12155.772     -12155.772     -12045.053     -8782.3723      14595.102    
    572800   493.88066     -12154.971     -12154.971     -12044.721      16984.896      14593.752    
    572900   512.91068     -12155.898     -12155.898     -12041.4        7362.9006      14595.409    
    573000   503.89115     -12150.277     -12150.277     -12037.792     -13921.597      14626.836    
    573100   532.00424     -12152.098     -12152.098     -12033.337      21300.977      14591.907    
    573200   493.13074     -12147.955     -12147.955     -12037.873      4088.8879      14607.805    
    573300   497.38836     -12151.572     -12151.572     -12040.539      12364.118      14610.535    
    573400   506.83065     -12155.156     -12155.156     -12042.015      9352.9414      14607.514    
    573500   487.79117     -12152.88      -12152.88      -12043.989     -6090.881       14616.608    
    573600   501.05327     -12155.478     -12155.478     -12043.627     -2455.2413      14593.225    
    573700   498.20394     -12152.812     -12152.812     -12041.597      5521.3774      14593.477    
    573800   507.89372     -12150.994     -12150.994     -12037.615     -27594.59       14601.268    
    573900   515.08416     -12152.645     -12152.645     -12037.662     -993.55102      14611.709    
    574000   509.35256     -12156.547     -12156.547     -12042.843     -4780.59        14594.984    
    574100   492.16633     -12154.316     -12154.316     -12044.449     -7355.7343      14612.247    
    574200   503.65702     -12156.01      -12156.01      -12043.578      3671.0839      14605.685    
    574300   513.45217     -12155.35      -12155.35      -12040.731      11579.068      14592.326    
    574400   505.8347      -12150.638     -12150.638     -12037.719      4800.5089      14609.176    
    574500   514.59074     -12150.653     -12150.653     -12035.78       2455.0378      14591.84     
    574600   509.4297      -12152.997     -12152.997     -12039.275     -473.68158      14601.083    
    574700   496.17194     -12155.085     -12155.085     -12044.324      12107.091      14590.566    
    574800   493.96409     -12155.99      -12155.99      -12045.722      2280.529       14581.25     
    574900   506.11143     -12155.894     -12155.894     -12042.914     -13940.538      14588.349    
    575000   507.95044     -12153.271     -12153.271     -12039.88       2909.2014      14603.191    
    575100   512.69135     -12151.676     -12151.676     -12037.226     -26482.894      14620.641    
    575200   487.74577     -12149.643     -12149.643     -12040.763     -7550.6142      14608.159    
    575300   498.66052     -12155.919     -12155.919     -12044.602      12830.431      14597.176    
    575400   489.41451     -12155.291     -12155.291     -12046.038     -4982.7893      14600.198    
    575500   502.80162     -12155.78      -12155.78      -12043.539      14489.224      14615.277    
    575600   508.70013     -12152.544     -12152.544     -12038.986     -13797.177      14620.17     
    575700   501.73687     -12151.409     -12151.409     -12039.405     -397.17828      14614.646    
    575800   505.59697     -12154.112     -12154.112     -12041.247      1149.3601      14612.158    
    575900   517.61729     -12157.625     -12157.625     -12042.076      1703.9171      14614.991    
    576000   477.90959     -12150.064     -12150.064     -12043.38      -6959.1889      14613.472    
    576100   498.50024     -12153.828     -12153.828     -12042.547     -1143.8223      14601.063    
    576200   513.2699      -12151.959     -12151.959     -12037.38       19605.989      14602.157    
    576300   501.90042     -12147.315     -12147.315     -12035.275     -19243.874      14617.044    
    576400   498.65141     -12151.227     -12151.227     -12039.912     -23856.302      14621.391    
    576500   500.10394     -12154.041     -12154.041     -12042.402      23399.499      14587.134    
    576600   495.55694     -12154.374     -12154.374     -12043.75       6811.8161      14594.143    
    576700   493.42648     -12153.241     -12153.241     -12043.092      16288.381      14593.95     
    576800   488.99351     -12150.992     -12150.992     -12041.833      2044.1978      14617.369    
    576900   514.68195     -12152.841     -12152.841     -12037.947      7170.2094      14604.078    
    577000   495.33919     -12149.797     -12149.797     -12039.221      1348.2362      14616.068    
    577100   492.09055     -12153.541     -12153.541     -12043.691     -30002.397      14625.663    
    577200   492.43983     -12155.75      -12155.75      -12045.821      1689.4588      14618.366    
    577300   505.538       -12157.818     -12157.818     -12044.966     -8749.375       14612.92     
    577400   488.7451      -12153.922     -12153.922     -12044.818      3847.8521      14621.722    
    577500   500.8484      -12153.288     -12153.288     -12041.482      1971.0674      14620.551    
    577600   512.60988     -12149.853     -12149.853     -12035.422      12868.928      14615.766    
    577700   507.21793     -12150.288     -12150.288     -12037.06      -831.00163      14601.429    
    577800   504.95687     -12154.105     -12154.105     -12041.383      14418.394      14599.275    
    577900   497.56819     -12155.104     -12155.104     -12044.03       11546.956      14597.799    
    578000   487.44365     -12153.537     -12153.537     -12044.724     -16159.965      14612.646    
    578100   496.30975     -12152.628     -12152.628     -12041.835     -11121.67       14604.147    
    578200   499.67292     -12148.183     -12148.183     -12036.639      7174.7388      14608.111    
    578300   533.7149      -12153.303     -12153.303     -12034.16       20828.574      14612.374    
    578400   505.47423     -12151.252     -12151.252     -12038.414      17974.589      14591.26     
    578500   498.0102      -12153.212     -12153.212     -12042.04       9601.1567      14587.52     
    578600   496.95191     -12155.901     -12155.901     -12044.965      4995.1671      14571.68     
    578700   505.05482     -12157.25      -12157.25      -12044.506      8690.3131      14577.889    
    578800   492.33268     -12151.147     -12151.147     -12041.242     -11773.602      14593.487    
    578900   519.28382     -12152.184     -12152.184     -12036.263     -6948.7911      14597.632    
    579000   514.84008     -12151.718     -12151.718     -12036.789      4220.2853      14595.137    
    579100   506.78731     -12152.871     -12152.871     -12039.74       4849.2659      14594.55     
    579200   504.42817     -12153.596     -12153.596     -12040.992      13200.879      14570.942    
    579300   490.04793     -12153.566     -12153.566     -12044.171      8577.086       14589.23     
    579400   494.67963     -12155.723     -12155.723     -12045.295     -12168.22       14600.244    
    579500   489.59992     -12153.64      -12153.64      -12044.345      20003.491      14589.829    
    579600   510.07623     -12153.305     -12153.305     -12039.439      1542.0654      14592.138    
    579700   514.8641      -12152.333     -12152.333     -12037.399      15044.319      14608.845    
    579800   501.2287      -12152.618     -12152.618     -12040.727     -32215.787      14640.557    
    579900   496.16452     -12154.505     -12154.505     -12043.745      10036.277      14627.249    
    580000   513.03855     -12158.235     -12158.235     -12043.708     -42575.582      14640.875    
    580100   510.61008     -12157.277     -12157.277     -12043.293      3810.1702      14609.999    
    580200   506.95107     -12154.726     -12154.726     -12041.559     -208.16945      14609.017    
    580300   512.47173     -12152.285     -12152.285     -12037.884      10066.131      14589.565    
    580400   525.22831     -12150.425     -12150.425     -12033.178      8771.5864      14605.534    
    580500   530.34618     -12154.154     -12154.154     -12035.764      12491.724      14623.15     
    580600   500.31448     -12153.451     -12153.451     -12041.765     -16668.982      14622.519    
    580700   496.00697     -12153.905     -12153.905     -12043.18      -20776.297      14617.452    
    580800   512.36457     -12157.465     -12157.465     -12043.089     -3817.941       14589.104    
    580900   501.50521     -12155.119     -12155.119     -12043.167     -9521.6496      14592.586    
    581000   507.76183     -12154.769     -12154.769     -12041.42      -12944.002      14597.79     
    581100   498.4647      -12150.274     -12150.274     -12039.001      3762.3151      14589.021    
    581200   509.86725     -12152.624     -12152.624     -12038.805     -1761.0772      14593.833    
    581300   491.56919     -12153.149     -12153.149     -12043.415     -1148.9457      14599.693    
    581400   495.48021     -12157.384     -12157.384     -12046.777      15656.229      14590.843    
    581500   495.11915     -12156.936     -12156.936     -12046.409      1392.3545      14608.097    
    581600   490.88856     -12151.499     -12151.499     -12041.917     -22988.767      14618.121    
    581700   513.46074     -12154.804     -12154.804     -12040.183     -20685.903      14619.157    
    581800   509.75932     -12154.39      -12154.39      -12040.595      2023.5566      14602.766    
    581900   480.19583     -12150.23      -12150.23      -12043.034      24689.204      14593.602    
    582000   494.07437     -12156.29      -12156.29      -12045.997      7087.1275      14590.092    
    582100   480.62606     -12157.073     -12157.073     -12049.781      5782.104       14589.086    
    582200   497.87967     -12158.351     -12158.351     -12047.208     -3714.3058      14582.176    
    582300   505.2524      -12154.536     -12154.536     -12041.747      5106.8033      14584.371    
    582400   507.17752     -12153.547     -12153.547     -12040.328     -3911.8361      14604.494    
    582500   500.42681     -12152.014     -12152.014     -12040.303     -5746.7813      14613.608    
    582600   498.30718     -12155.148     -12155.148     -12043.91      -3587.2391      14621.972    
    582700   504.58407     -12159.31      -12159.31      -12046.67      -3119.3608      14624.695    
    582800   492.83732     -12156.392     -12156.392     -12046.374     -4066.8429      14638.362    
    582900   517.54584     -12156.704     -12156.704     -12041.171      9162.3342      14607.465    
    583000   506.16259     -12153.585     -12153.585     -12040.593     -13416.121      14615.131    
    583100   501.82626     -12153.424     -12153.424     -12041.401     -5662.8091      14602.415    
    583200   501.26483     -12155.664     -12155.664     -12043.765     -15220.662      14608.574    
    583300   500.32848     -12158.189     -12158.189     -12046.499     -19438.335      14620.628    
    583400   484.94344     -12155.314     -12155.314     -12047.059      6195.4637      14595.147    
    583500   506.63357     -12154.851     -12154.851     -12041.754      11988.24       14603.306    
    583600   507.25381     -12152.608     -12152.608     -12039.373      10771.115      14598.636    
    583700   485.32894     -12149.573     -12149.573     -12041.232     -19342.99       14621.912    
    583800   486.20766     -12152.59      -12152.59      -12044.053      6467.2356      14604.734    
    583900   487.39795     -12158.047     -12158.047     -12049.244     -13227.954      14604.881    
    584000   487.56782     -12158.725     -12158.725     -12049.884     -2.2575693      14609.187    
    584100   497.59595     -12157.686     -12157.686     -12046.606      24350.19       14590.894    
    584200   490.72613     -12154.523     -12154.523     -12044.977      7246.0009      14599.12     
    584300   515.8826      -12157.006     -12157.006     -12041.844      5033.7823      14599.414    
    584400   505.01613     -12153.706     -12153.706     -12040.97      -4291.8145      14608.599    
    584500   503.44834     -12153.382     -12153.382     -12040.996      520.39828      14597.058    
    584600   502.19031     -12154.014     -12154.014     -12041.909     -20590.972      14614.742    
    584700   496.48665     -12155.756     -12155.756     -12044.924      3680.2504      14613.132    
    584800   497.23473     -12156.677     -12156.677     -12045.679     -2933.6728      14604.786    
    584900   509.02993     -12157.216     -12157.216     -12043.584     -10123.468      14610.637    
    585000   496.61245     -12149.936     -12149.936     -12039.076      11732.331      14591.524    
    585100   504.92492     -12149.524     -12149.524     -12036.809     -11947.104      14605.721    
    585200   508.29278     -12153.137     -12153.137     -12039.67      -5518.2207      14610.571    
    585300   514.71048     -12156.138     -12156.138     -12041.238      13951.507      14590.629    
    585400   493.71881     -12152.367     -12152.367     -12042.153     -1920.0061      14607.918    
    585500   506.58803     -12155.567     -12155.567     -12042.48       12367.875      14582.313    
    585600   497.08106     -12154.963     -12154.963     -12043.998      17333.786      14589.035    
    585700   490.08666     -12156.938     -12156.938     -12047.535     -522.3774       14594.883    
    585800  