LAMMPS (24 Mar 2022)
OMP_NUM_THREADS environment is not set. Defaulting to 1 thread. (src/comm.cpp:98)
  using 1 OpenMP thread(s) per MPI task

# System init

units      metal
dimension  3
boundary   p p p
atom_style atomic
timestep   0.00025


# read data
read_data NiO_supercell_iter_last_lmp.data
Reading data file ...
  orthogonal box = (0 0 0) to (12.649858 12.649858 12.649858)
  1 by 2 by 3 MPI processor grid
  reading atoms ...
  216 atoms
  read_data CPU = 0.001 seconds
replicate 2 2 2
Replicating atoms ...
  orthogonal box = (0 0 0) to (25.299717 25.299717 25.299717)
  1 by 2 by 3 MPI processor grid
  1728 atoms
  replicate CPU = 0.001 seconds

# pair potential

pair_style hybrid/overlay eam/alloy edip/multi
pair_coeff * * eam/alloy Mishin-Ni-Al-2009.eam.alloy Ni NULL
pair_coeff * * edip/multi NiAlO.edip Ni O

mass 2 15.999

dump   1 all atom 1000 generic.lammpstrj

# reporting
thermo_style custom step temp pe epair etotal press vol
thermo 100


# Single point
min_style hftn
minimize 1e-10 1e-10 10000 100000

CITE-CITE-CITE-CITE-CITE-CITE-CITE-CITE-CITE-CITE-CITE-CITE-CITE

Your simulation uses code contributions which should be cited:

- @article{cjiang2012
 author    = {Jian, Chao and Morgan, Dane, and Szlufarska, Izabella},
 title     = {Carbon tri-interstitial defect: A model for DII center},
 journal   = {Physical Review B},
 volume    = {86},
 pages     = {144118},
 year      = {2012},
}

@article{lpizzagalli2010,
 author    = {G. Lucas, M. Bertolus, and L. Pizzagalli},
 journal   = {J. Phys. : Condens. Matter 22},
 volume    = {22},
 pages     = {035802},
 year      = {2010},
}

CITE-CITE-CITE-CITE-CITE-CITE-CITE-CITE-CITE-CITE-CITE-CITE-CITE

WARNING: Using 'neigh_modify every 1 delay 0 check yes' setting during minimization (src/min.cpp:187)
Neighbor list info ...
  update every 1 steps, delay 0 steps, check yes
  max neighbors/atom: 2000, page size: 100000
  master list distance cutoff = 8.28721
  ghost atom cutoff = 8.28721
  binsize = 4.143605, bins = 7 7 7
  3 neighbor lists, perpetual/occasional/extra = 3 0 0
  (1) pair eam/alloy, perpetual, skip from (3)
      attributes: half, newton on
      pair build: skip
      stencil: none
      bin: none
  (2) pair edip/multi, perpetual
      attributes: full, newton on
      pair build: full/bin/atomonly
      stencil: full/bin/3d
      bin: standard
  (3) neighbor class addition, perpetual, half/full from (2)
      attributes: half, newton on
      pair build: halffull/newton
      stencil: none
      bin: none
Per MPI rank memory allocation (min/avg/max) = 8.349 | 8.349 | 8.349 Mbytes
   Step          Temp          PotEng         E_pair         TotEng         Press          Volume    
         0   0             -8921.847      -8921.847      -8921.847       22025.076      16193.733    
        80   0             -12061.344     -12061.344     -12061.344     -280931.59      16193.733    
Loop time of 11.0554 on 6 procs for 79 steps with 1728 atoms

99.8% CPU use with 6 MPI tasks x 1 OpenMP threads

Minimization stats:
  Stopping criterion = energy tolerance
  Energy initial, next-to-last, final = 
     -8921.84696268056  -12061.3439883913  -12061.3439911625
  Force two-norm initial, final = 0.00039135212 3.2340586e-07
  Force max component initial, final = 8.7814039e-06 4.2049791e-08
  Final line search alpha, max atom move = 0 0
  Iterations, force evaluations = 79 3922

MPI task timing breakdown:
Section |  min time  |  avg time  |  max time  |%varavg| %total
---------------------------------------------------------------
Pair    | 10.176     | 10.231     | 10.28      |   1.2 | 92.54
Neigh   | 0.0037295  | 0.0037958  | 0.0038645  |   0.1 |  0.03
Comm    | 0.67273    | 0.72171    | 0.77576    |   4.4 |  6.53
Output  | 0          | 0          | 0          |   0.0 |  0.00
Modify  | 0          | 0          | 0          |   0.0 |  0.00
Other   |            | 0.099      |            |       |  0.90

Nlocal:            288 ave         292 max         284 min
Histogram: 2 0 0 0 0 2 0 0 0 2
Nghost:        2931.17 ave        2944 max        2912 min
Histogram: 1 1 0 0 0 0 0 2 0 2
Neighs:              0 ave           0 max           0 min
Histogram: 6 0 0 0 0 0 0 0 0 0
FullNghs:      36454.3 ave       37172 max       35813 min
Histogram: 2 0 0 0 2 0 0 0 0 2

Total # of neighbors = 218726
Ave neighs/atom = 126.57755
Neighbor list builds = 2
Dangerous builds = 0

# Thermalisation

velocity all create 300 1 mom yes rot no

#dump   1 all atom 10 generic.dump
fix 1 all npt temp 300 300 $(100*dt) iso 1.0 1.0 $(1000*dt)
fix 1 all npt temp 300 300 0.025000000000000001388 iso 1.0 1.0 $(1000*dt)
fix 1 all npt temp 300 300 0.025000000000000001388 iso 1.0 1.0 0.25
run 200000
Per MPI rank memory allocation (min/avg/max) = 5.732 | 5.732 | 5.732 Mbytes
   Step          Temp          PotEng         E_pair         TotEng         Press          Volume    
        80   300           -12061.344     -12061.344     -11994.374     -276514.35      16193.733    
       100   266.83683     -12060.597     -12060.597     -12001.03       53053.183      15897.039    
       200   277.76751     -12062.1       -12062.1       -12000.093      38108.783      15722.128    
       300   270.30799     -12054.68      -12054.68      -11994.339     -114909.04      15859.609    
       400   314.31082     -12061.642     -12061.642     -11991.478      2272.3855      15578.432    
       500   285.70092     -12051.557     -12051.557     -11987.78       31343.343      15516.652    
       600   257.78539     -12037.689     -12037.689     -11980.143     -37113.55       15560.308    
       700   332.96706     -12046.64      -12046.64      -11972.311      13375.963      15531.335    
       800   337.93579     -12051.756     -12051.756     -11976.318      17631.215      15653.053    
       900   293.71696     -12051.677     -12051.677     -11986.109     -14758.027      15725.296    
      1000   270.1146      -12049.511     -12049.511     -11989.213      300.20028      15784.063    
      1100   266.55581     -12043.277     -12043.277     -11983.773      6345.6152      15730.882    
      1200   313.68743     -12046.048     -12046.048     -11976.022     -2024.7835      15727.71     
      1300   339.62844     -12049.951     -12049.951     -11974.135     -4320.7986      15634.334    
      1400   324.92492     -12055.644     -12055.644     -11983.11      -7169.2928      15546.548    
      1500   303.82912     -12059.525     -12059.525     -11991.701     -8812.4269      15497.222    
      1600   307.34719     -12066.997     -12066.997     -11998.387     -753.05982      15417.961    
      1700   315.78423     -12075.073     -12075.073     -12004.58      -6416.131       15390.56     
      1800   336.30701     -12088.069     -12088.069     -12012.995     -43.384445      15312.303    
      1900   343.36924     -12100.811     -12100.811     -12024.16      -4040.2223      15280.463    
      2000   340.84305     -12112.338     -12112.338     -12036.25      -2508.4707      15207.426    
      2100   338.03966     -12123.529     -12123.529     -12048.068     -9638.8108      15168.51     
      2200   339.29028     -12135.831     -12135.831     -12060.091     -12728.433      15098.53     
      2300   327.51815     -12144.942     -12144.942     -12071.83      -1181.0157      14993.717    
      2400   308.35394     -12150.372     -12150.372     -12081.538     -6325.4811      14933.443    
      2500   301.83518     -12155.461     -12155.461     -12088.082     -3814.1439      14843.765    
      2600   309.55403     -12162.516     -12162.516     -12093.414     -2596.8666      14790.926    
      2700   304.86083     -12168.049     -12168.049     -12099.994      11499.881      14741.641    
      2800   301.94903     -12172.716     -12172.716     -12105.311      7564.8787      14727.357    
      2900   305.40043     -12178.189     -12178.189     -12110.014      7571.5111      14712.824    
      3000   300.67225     -12182.288     -12182.288     -12115.168      6005.8798      14695.341    
      3100   300.33249     -12186.294     -12186.294     -12119.25       1938.6939      14700.535    
      3200   289.14181     -12186.664     -12186.664     -12122.118      3718.1699      14711.482    
      3300   276.907       -12181.742     -12181.742     -12119.927     -1058.2587      14722.031    
      3400   288.03531     -12177.667     -12177.667     -12113.369     -3789.3469      14716.25     
      3500   315.36383     -12178.866     -12178.866     -12108.467      4210.501       14696.987    
      3600   308.31997     -12178.759     -12178.759     -12109.932      4454.5721      14691.107    
      3700   298.87581     -12181.494     -12181.494     -12114.775     -1825.3839      14680.632    
      3800   290.97886     -12182.285     -12182.285     -12117.329      1530.5247      14672.311    
      3900   301.43395     -12183.66      -12183.66      -12116.37       1297.4945      14654.368    
      4000   315.94537     -12187.391     -12187.391     -12116.862     -12526.503      14639.049    
      4100   322.89008     -12194.645     -12194.645     -12122.565     -12001.886      14609.471    
      4200   326.98203     -12203.468     -12203.468     -12130.475      367.86033      14566.227    
      4300   316.8936      -12209.168     -12209.168     -12138.428      3089.4369      14547.788    
      4400   307.55079     -12213.537     -12213.537     -12144.882      5045.3295      14537.107    
      4500   289.22679     -12213.782     -12213.782     -12149.218      5329.0734      14545.331    
      4600   274.22994     -12208.925     -12208.925     -12147.708      556.91115      14568.005    
      4700   281.83238     -12203.991     -12203.991     -12141.077     -9460.8698      14592.851    
      4800   285.44881     -12198.674     -12198.674     -12134.953     -6186.7492      14604.24     
      4900   293.82451     -12194.735     -12194.735     -12129.144      20.296851      14610.301    
      5000   307.10331     -12193.481     -12193.481     -12124.926      239.68764      14616.847    
      5100   316.49636     -12195.609     -12195.609     -12124.957     -2847.7112      14625.038    
      5200   302.02635     -12196.706     -12196.706     -12129.284     -8070.2984      14623.689    
      5300   306.9026      -12202.121     -12202.121     -12133.61      -5658.2668      14606.237    
      5400   299.5757      -12205.239     -12205.239     -12138.364      2870.8034      14595.534    
      5500   292.93373     -12205.952     -12205.952     -12140.559     -5971.9687      14591.869    
      5600   294.19125     -12205.55      -12205.55      -12139.877     -1523.868       14581.583    
      5700   300.97168     -12204.461     -12204.461     -12137.274     -4871.3377      14582.991    
      5800   297.80425     -12201.643     -12201.643     -12135.164     -220.83938      14580.307    
      5900   305.93071     -12202.291     -12202.291     -12133.998     -4731.2252      14589.418    
      6000   297.25575     -12201.268     -12201.268     -12134.911     -6360.1303      14583.82     
      6100   298.61405     -12202.084     -12202.084     -12135.423      758.62081      14592.734    
      6200   287.84733     -12198.564     -12198.564     -12134.308     -4602.2796      14601.335    
      6300   299.13916     -12198.147     -12198.147     -12131.37      -4365.2204      14603.1      
      6400   303.77223     -12198.624     -12198.624     -12130.813     -339.28104      14590.404    
      6500   309.71509     -12202.42      -12202.42      -12133.281     -38.803295      14594.205    
      6600   296.70582     -12202.149     -12202.149     -12135.915      676.06182      14575.825    
      6700   299.12614     -12203.275     -12203.275     -12136.5        2182.2409      14566.304    
      6800   298.65603     -12203.938     -12203.938     -12137.268      21062.62       14557.315    
      6900   289.03483     -12202.817     -12202.817     -12138.295      8948.8341      14548.592    
      7000   297.4827      -12201.829     -12201.829     -12135.421     -8361.2188      14561.269    
      7100   302.85697     -12201.397     -12201.397     -12133.789      1273.7051      14550.526    
      7200   297.07969     -12200.483     -12200.483     -12134.166      11077.601      14561.792    
      7300   299.09235     -12200.438     -12200.438     -12133.671      3059.3381      14583.004    
      7400   301.52679     -12199.331     -12199.331     -12132.021     -7945.2756      14598.778    
      7500   303.04356     -12198.331     -12198.331     -12130.682      3812.1345      14600.54     
      7600   307.15334     -12199.96      -12199.96      -12131.393      9477.5886      14593.796    
      7700   299.26701     -12201.647     -12201.647     -12134.841      792.31857      14603.471    
      7800   293.82452     -12202.158     -12202.158     -12136.567     -5833.1684      14600.06     
      7900   299.83826     -12203.329     -12203.329     -12136.396     -4463.1764      14591.243    
      8000   298.99623     -12203.837     -12203.837     -12137.091      11710.895      14580.375    
      8100   294.89436     -12205.095     -12205.095     -12139.265      11265.183      14582.433    
      8200   289.60746     -12205.338     -12205.338     -12140.688     -628.41842      14579.275    
      8300   295.60344     -12203.973     -12203.973     -12137.985      10581.947      14577.607    
      8400   290.18601     -12200.59      -12200.59      -12135.811      9104.1214      14595.532    
      8500   296.86554     -12200.54      -12200.54      -12134.27       14802.205      14591.238    
      8600   300.38838     -12199.801     -12199.801     -12132.745      90.035737      14593.66     
      8700   313.05681     -12202.221     -12202.221     -12132.337      4479.2783      14582.61     
      8800   299.72569     -12202.875     -12202.875     -12135.967     -1240.7696      14577.495    
      8900   299.26318     -12204.56      -12204.56      -12137.754      25229.293      14561.322    
      9000   292.84055     -12203.23      -12203.23      -12137.859      5501.0444      14579.913    
      9100   302.80654     -12202.733     -12202.733     -12135.137      2986.9752      14581.03     
      9200   310.60819     -12203.337     -12203.337     -12133.999     -417.74279      14582.434    
      9300   301.62403     -12202.368     -12202.368     -12135.036     -3723.352       14583.931    
      9400   298.92517     -12202.9       -12202.9       -12136.17       6790.245       14580.153    
      9500   290.5683      -12200.438     -12200.438     -12135.573      24752.462      14571.224    
      9600   309.51784     -12201.28      -12201.28      -12132.186      5589.3604      14584.155    
      9700   309.22227     -12202.103     -12202.103     -12133.075      1964.9054      14574.223    
      9800   296.30576     -12201.915     -12201.915     -12135.77      -256.3862       14578.636    
      9900   299.49813     -12203.18      -12203.18      -12136.322      7951.3069      14568.273    
     10000   300.09174     -12202.198     -12202.198     -12135.208      9236.3604      14582.108    
     10100   307.50148     -12201.207     -12201.207     -12132.563      11665.846      14580.723    
     10200   303.37385     -12198.363     -12198.363     -12130.64      -3066.1295      14589.78     
     10300   311.11463     -12199.733     -12199.733     -12130.282      12615.55       14573.168    
     10400   300.4087      -12201.334     -12201.334     -12134.273      9690.4438      14582.054    
     10500   299.23166     -12203.204     -12203.204     -12136.406     -19160.398      14589.206    
     10600   299.47208     -12203.988     -12203.988     -12137.136     -3094.6234      14587.321    
     10700   300.54407     -12202.763     -12202.763     -12135.672      16607.232      14565.38     
     10800   312.73953     -12203.106     -12203.106     -12133.292      10148.62       14568.085    
     10900   309.13679     -12202.9       -12202.9       -12133.891      113.70028      14548.063    
     11000   289.65144     -12201.304     -12201.304     -12136.645     -399.25999      14551.201    
     11100   293.16004     -12201.735     -12201.735     -12136.292      811.94615      14545.06     
     11200   295.52931     -12200.669     -12200.669     -12134.697     -3794.9316      14564.586    
     11300   305.30618     -12200.923     -12200.923     -12132.769      25218.968      14553.257    
     11400   301.31834     -12200.443     -12200.443     -12133.179     -4522.4506      14573.292    
     11500   293.99882     -12201.967     -12201.967     -12136.337      1204.397       14578.52     
     11600   297.94427     -12203.595     -12203.595     -12137.084      11504.891      14576.298    
     11700   294.43552     -12202.41      -12202.41      -12136.682     -6757.4159      14590.428    
     11800   299.2765      -12201.635     -12201.635     -12134.827     -1176.0755      14593.429    
     11900   303.93203     -12201.448     -12201.448     -12133.6        8013.1567      14587.192    
     12000   304.32516     -12202.032     -12202.032     -12134.096      6010.2727      14582.719    
     12100   298.7324      -12201.96      -12201.96      -12135.273     -7513.93        14589.221    
     12200   303.14581     -12203.463     -12203.463     -12135.791      8387.3053      14574.51     
     12300   298.2199      -12202.679     -12202.679     -12136.107      6218.4299      14582.231    
     12400   300.47597     -12202.485     -12202.485     -12135.409     -6149.7962      14583.724    
     12500   303.6388      -12201.394     -12201.394     -12133.612      3535.421       14585.603    
     12600   306.03733     -12200.304     -12200.304     -12131.987      4728.1216      14590.243    
     12700   303.23606     -12201.823     -12201.823     -12134.131     -18517.689      14608.376    
     12800   297.97476     -12202.979     -12202.979     -12136.461     -4225.6615      14598.157    
     12900   307.14286     -12204.841     -12204.841     -12136.277      4310.5816      14597.043    
     13000   295.53698     -12201.407     -12201.407     -12135.433     -71.264394      14590.209    
     13100   304.24157     -12200.711     -12200.711     -12132.794      887.8245       14584.211    
     13200   308.61596     -12200.075     -12200.075     -12131.182     -2509.1194      14582.658    
     13300   299.59842     -12202.16      -12202.16      -12135.28      -2572.3925      14577.833    
     13400   294.56788     -12202.903     -12202.903     -12137.146     -1132.4065      14578.964    
     13500   302.28697     -12203.917     -12203.917     -12136.437      16692.366      14551.535    
     13600   302.46633     -12202.421     -12202.421     -12134.901     -9578.9814      14560.237    
     13700   294.41868     -12199.326     -12199.326     -12133.602     -5462.0307      14551.504    
     13800   311.7179      -12202.221     -12202.221     -12132.636      11383.052      14550.697    
     13900   296.8236      -12201.483     -12201.483     -12135.222     -11935.993      14552.671    
     14000   297.17913     -12203.483     -12203.483     -12137.143     -6336.0063      14560.288    
     14100   287.73098     -12200.966     -12200.966     -12136.735     -1151.0417      14556.339    
     14200   301.03178     -12201.11      -12201.11      -12133.91      -3253.6487      14555.438    
     14300   306.77153     -12201.882     -12201.882     -12133.4       -8359.1779      14563.808    
     14400   303.86186     -12201.733     -12201.733     -12133.901     -12759.51       14579.219    
     14500   306.54856     -12202.783     -12202.783     -12134.351     -16696.166      14572.264    
     14600   296.56346     -12203.871     -12203.871     -12137.668      14076.476      14568.465    
     14700   294.2155      -12205.147     -12205.147     -12139.469      2668.2239      14592.401    
     14800   294.36364     -12204.196     -12204.196     -12138.485     -9175.5781      14594.529    
     14900   293.38042     -12201.937     -12201.937     -12136.445     -10411.775      14594.687    
     15000   302.81356     -12202.788     -12202.788     -12135.19       8880.8902      14580.599    
     15100   297.7873      -12201.804     -12201.804     -12135.328      39.257142      14604.648    
     15200   301.28898     -12202.957     -12202.957     -12135.699     -4217.1643      14594.299    
     15300   291.36421     -12202.641     -12202.641     -12137.599      6771.8407      14592.19     
     15400   295.48505     -12203.602     -12203.602     -12137.64       20862.607      14580.312    
     15500   306.04852     -12202.624     -12202.624     -12134.304      9561.8428      14587.533    
     15600   298.22525     -12199.873     -12199.873     -12133.3        6364.2531      14588.146    
     15700   308.35709     -12202.466     -12202.466     -12133.631      3613.8756      14576.974    
     15800   296.5832      -12203.394     -12203.394     -12137.187      78.906111      14566.522    
     15900   292.10472     -12202.779     -12202.779     -12137.572      16284.458      14562.142    
     16000   301.80601     -12203.399     -12203.399     -12136.026     -4336.684       14580.081    
     16100   295.50858     -12200.539     -12200.539     -12134.572      10647.881      14571.88     
     16200   299.85992     -12199.114     -12199.114     -12132.176     -5863.5874      14570.772    
     16300   312.81256     -12202.276     -12202.276     -12132.446     -3289.0654      14570.811    
     16400   312.1518      -12203.664     -12203.664     -12133.981     -8191.1256      14568.137    
     16500   292.32477     -12200.051     -12200.051     -12134.795     -22566.066      14566.821    
     16600   304.25587     -12201.93      -12201.93      -12134.011      3233.3248      14551.802    
     16700   297.86422     -12200.785     -12200.785     -12134.292      15520.117      14548.67     
     16800   293.02416     -12200.994     -12200.994     -12135.581     -16988.651      14579.452    
     16900   301.39131     -12204.707     -12204.707     -12137.427      4303.5991      14565.41     
     17000   295.32024     -12204.3       -12204.3       -12138.375     -3005.331       14572.258    
     17100   303.42545     -12203.822     -12203.822     -12136.088     -5656.4765      14574.247    
     17200   300.54635     -12200.427     -12200.427     -12133.335     -6135.0404      14572.879    
     17300   305.6776      -12202.149     -12202.149     -12133.912      27704.297      14567.762    
     17400   289.67067     -12201.003     -12201.003     -12136.339      19802.326      14577.87     
     17500   297.29239     -12202.629     -12202.629     -12136.263      10384.485      14578.378    
     17600   303.19933     -12203.216     -12203.216     -12135.532     -10465.853      14597.042    
     17700   303.55019     -12202.653     -12202.653     -12134.891      641.73024      14597.787    
     17800   300.70768     -12202.19      -12202.19      -12135.062     -1782.4183      14596.255    
     17900   295.74783     -12201.663     -12201.663     -12135.642      4079.0411      14580.281    
     18000   297.96022     -12202.078     -12202.078     -12135.563      6211.2924      14584.497    
     18100   303.87819     -12202.693     -12202.693     -12134.857     -4059.9961      14586.724    
     18200   304.40545     -12201.742     -12201.742     -12133.788     -9129.0134      14579.854    
     18300   302.89106     -12202.591     -12202.591     -12134.976      5133.4182      14545.342    
     18400   290.87781     -12202.527     -12202.527     -12137.594     -1381.8167      14555.787    
     18500   300.12935     -12204.108     -12204.108     -12137.109     -1304.1599      14551.585    
     18600   300.67451     -12202.951     -12202.951     -12135.831      1093.4005      14553.299    
     18700   308.69263     -12201.343     -12201.343     -12132.433     -8121.6462      14567.275    
     18800   303.87117     -12198.88      -12198.88      -12131.046     -14109.099      14579.398    
     18900   312.12667     -12202.574     -12202.574     -12132.897     -3131.1311      14564.579    
     19000   298.40873     -12201.798     -12201.798     -12135.184     -10065.19       14581.286    
     19100   294.93726     -12201.644     -12201.644     -12135.805     -1319.1516      14587.834    
     19200   305.70581     -12203.752     -12203.752     -12135.509      11755.197      14575.54     
     19300   300.55205     -12200.769     -12200.769     -12133.676     -4798.3248      14586.417    
     19400   312.39146     -12201.584     -12201.584     -12131.848      12333.044      14562.428    
     19500   299.14222     -12201.044     -12201.044     -12134.266      964.55125      14571.673    
     19600   308.85368     -12205.281     -12205.281     -12136.335     -3967.1669      14572.425    
     19700   289.45161     -12201.697     -12201.697     -12137.082      3086.1292      14585.47     
     19800   295.44323     -12201.396     -12201.396     -12135.443      20029.427      14559.834    
     19900   295.47347     -12199.698     -12199.698     -12133.739     -3453.8862      14573.754    
     20000   307.04331     -12202.113     -12202.113     -12133.571     -1391.3646      14581.916    
     20100   302.93138     -12202.462     -12202.462     -12134.838      13172.225      14577.882    
     20200   300.40087     -12202.166     -12202.166     -12135.106     -22336.207      14605.037    
     20300   297.96425     -12201.489     -12201.489     -12134.974     -13642.972      14589.729    
     20400   306.1635      -12201.814     -12201.814     -12133.468      44.166792      14584.248    
     20500   316.59377     -12201.917     -12201.917     -12131.243      17529.892      14579.988    
     20600   302.1717      -12200.724     -12200.724     -12133.27      -2151.6823      14594.487    
     20700   297.55276     -12202.198     -12202.198     -12135.774     -6085.0613      14585.758    
     20800   308.71421     -12205.024     -12205.024     -12136.109      5794.9157      14552.078    
     20900   301.27356     -12204.212     -12204.212     -12136.958     -2219.8612      14562.478    
     21000   294.68797     -12204.045     -12204.045     -12138.261     -3704.8611      14554.778    
     21100   294.32908     -12204.291     -12204.291     -12138.587      2160.895       14557.587    
     21200   300.07199     -12202.298     -12202.298     -12135.312     -19847.891      14567.375    
     21300   300.59732     -12200.975     -12200.975     -12133.872      4164.8131      14560.477    
     21400   309.42938     -12202.171     -12202.171     -12133.096      27095.451      14554.082    
     21500   289.86541     -12199.682     -12199.682     -12134.974     -6113.7641      14576.382    
     21600   292.44824     -12203.21      -12203.21      -12137.926     -9387.7448      14570.311    
     21700   295.66104     -12203.814     -12203.814     -12137.813      7379.9953      14556.467    
     21800   291.76078     -12201.831     -12201.831     -12136.7       -10033.544      14586.137    
     21900   300.10773     -12202.425     -12202.425     -12135.431      4527.0667      14566.574    
     22000   298.21855     -12201.055     -12201.055     -12134.483     -1673.0494      14578.479    
     22100   302.6427      -12202.318     -12202.318     -12134.758     -9421.6279      14582.463    
     22200   290.92405     -12203.71      -12203.71      -12138.767     -727.38319      14578.379    
     22300   293.73106     -12204.054     -12204.054     -12138.484      9546.8723      14555.234    
     22400   298.20944     -12202.827     -12202.827     -12136.257     -12832.73       14566.648    
     22500   300.15515     -12202.116     -12202.116     -12135.112     -13080.157      14572.528    
     22600   299.96617     -12201.652     -12201.652     -12134.69       4707.5097      14579.17     
     22700   303.89286     -12203.408     -12203.408     -12135.569     -5940.3173      14592.685    
     22800   289.61815     -12203.744     -12203.744     -12139.092     -19607.528      14603.901    
     22900   298.22975     -12204.877     -12204.877     -12138.302      6707.5697      14577.553    
     23000   298.7312      -12202.863     -12202.863     -12136.177      10206.801      14581.055    
     23100   299.40075     -12201.721     -12201.721     -12134.885     -15305.651      14590.885    
     23200   299.25338     -12200.635     -12200.635     -12133.832      3389.1929      14579.486    
     23300   307.92781     -12202.346     -12202.346     -12133.607      15378.19       14571.232    
     23400   287.04808     -12201.068     -12201.068     -12136.989     -2762.8686      14561.937    
     23500   290.48969     -12203.66      -12203.66      -12138.814     -11072.869      14576.913    
     23600   298.61955     -12203.476     -12203.476     -12136.815     -11510.06       14570.047    
     23700   294.79725     -12200.653     -12200.653     -12134.845     -13906.808      14576.135    
     23800   304.61668     -12202.426     -12202.426     -12134.425      4365.0215      14567.816    
     23900   301.2975      -12202.468     -12202.468     -12135.208      14784.305      14570.071    
     24000   294.5942      -12203.918     -12203.918     -12138.155      2010.3433      14571.679    
     24100   290.93585     -12204.379     -12204.379     -12139.433     -11879.714      14589.942    
     24200   297.49007     -12203.061     -12203.061     -12136.651      13341.952      14569.5      
     24300   296.36709     -12201.229     -12201.229     -12135.07       17944.598      14572.39     
     24400   305.89688     -12202.651     -12202.651     -12134.365      11581.259      14584.942    
     24500   300.49679     -12201.739     -12201.739     -12134.658      6764.1303      14589.404    
     24600   305.94669     -12204.23      -12204.23      -12135.933     -3248.3034      14581.203    
     24700   288.45028     -12203.056     -12203.056     -12138.664     -4600.2441      14588.347    
     24800   289.23984     -12202.362     -12202.362     -12137.794      6261.5246      14572.555    
     24900   298.62379     -12202.228     -12202.228     -12135.565      1125.2618      14574.514    
     25000   300.66014     -12201.76      -12201.76      -12134.643      6747.9519      14568.518    
     25100   314.31403     -12204.458     -12204.458     -12134.292     -14493.739      14577.199    
     25200   297.13479     -12202.562     -12202.562     -12136.232     -10209.923      14564.907    
     25300   297.11503     -12203.726     -12203.726     -12137.401      1752.0491      14571.512    
     25400   292.31128     -12203.288     -12203.288     -12138.035      4626.9758      14576.171    
     25500   301.92221     -12203.802     -12203.802     -12136.403      8367.8349      14574.966    
     25600   290.85725     -12199.294     -12199.294     -12134.366      5473.6563      14556.78     
     25700   307.74598     -12202.198     -12202.198     -12133.499      8307.1624      14558.834    
     25800   298.37017     -12201.444     -12201.444     -12134.838     -1588.9494      14561.955    
     25900   294.45803     -12203.106     -12203.106     -12137.373     -8146.696       14564.544    
     26000   295.9231      -12204.557     -12204.557     -12138.498     -629.51073      14556.819    
     26100   301.01429     -12202.991     -12202.991     -12135.795      9406.2075      14555.104    
     26200   301.17573     -12200.577     -12200.577     -12133.344      1031.0383      14564.403    
     26300   307.74899     -12201.913     -12201.913     -12133.214     -10522.98       14577.446    
     26400   301.44245     -12202.785     -12202.785     -12135.493     -4014.5867      14563.498    
     26500   294.08117     -12202.653     -12202.653     -12137.005     -9530.4299      14557.233    
     26600   296.10681     -12202.669     -12202.669     -12136.569     -1676.2324      14573.006    
     26700   301.33383     -12202.986     -12202.986     -12135.718      14532.183      14576.075    
     26800   297.15808     -12201.99      -12201.99      -12135.655      13758.734      14582.225    
     26900   308.128       -12203.693     -12203.693     -12134.909      4444.7526      14582.423    
     27000   302.02828     -12201.652     -12201.652     -12134.229     -6147.5059      14578.253    
     27100   308.82989     -12201.682     -12201.682     -12132.741     -8248.1416      14577.286    
     27200   305.75033     -12200.787     -12200.787     -12132.534     -12220.107      14599.089    
     27300   301.56918     -12202.397     -12202.397     -12135.077     -9445.105       14595.347    
     27400   299.96894     -12203.994     -12203.994     -12137.032      2869.5952      14578.578    
     27500   294.02858     -12202.566     -12202.566     -12136.929      1682.1028      14579.796    
     27600   301.12851     -12201.53      -12201.53      -12134.308     -10987.251      14588.47     
     27700   309.60606     -12201.657     -12201.657     -12132.543     -6654.352       14569.714    
     27800   298.02162     -12199.962     -12199.962     -12133.434      3550.8277      14556.545    
     27900   298.43761     -12201.226     -12201.226     -12134.606     -10598.392      14569.214    
     28000   299.71021     -12203.165     -12203.165     -12136.26       461.1786       14573.782    
     28100   297.61439     -12202.943     -12202.943     -12136.506      20141.67       14567.233    
     28200   305.27806     -12201.434     -12201.434     -12133.286     -17629.076      14586.446    
     28300   304.98032     -12199.049     -12199.049     -12130.967     -8756.3329      14586.804    
     28400   305.85638     -12200.477     -12200.477     -12132.199     -1869.0656      14577.62     
     28500   303.58645     -12202.568     -12202.568     -12134.798      1153.1635      14571.791    
     28600   295.20106     -12201.924     -12201.924     -12136.026     -6345.8007      14585.773    
     28700   308.00559     -12204.551     -12204.551     -12135.794      4040.14        14568.356    
     28800   293.19359     -12202         -12202         -12136.549      7859.1956      14576.159    
     28900   302.00257     -12203.809     -12203.809     -12136.392     -396.21554      14570.563    
     29000   302.13078     -12201.784     -12201.784     -12134.339     -31864.202      14576.265    
     29100   308.24866     -12201.449     -12201.449     -12132.638     -12551.285      14565.869    
     29200   310.30807     -12202.556     -12202.556     -12133.285     -4860.8738      14564.731    
     29300   297.03569     -12202.691     -12202.691     -12136.383     -4745.8647      14566.323    
     29400   291.13572     -12202.208     -12202.208     -12137.217      8225.1706      14554.1      
     29500   308.37922     -12205.022     -12205.022     -12136.182     -247.13265      14574.163    
     29600   300.71019     -12202.394     -12202.394     -12135.266     -1951.0352      14578.31     
     29700   297.36018     -12200.972     -12200.972     -12134.591      24834.734      14568.521    
     29800   305.66266     -12199.275     -12199.275     -12131.041      1262.5323      14578.55     
     29900   316.3448      -12199.956     -12199.956     -12129.337     -1275.9216      14575.084    
     30000   304.16613     -12200.411     -12200.411     -12132.512      569.43281      14572.201    
     30100   295.34931     -12200.817     -12200.817     -12134.886      3372.6775      14568.845    
     30200   305.5313      -12203.968     -12203.968     -12135.764      16792.321      14556.238    
     30300   293.24906     -12202.609     -12202.609     -12137.147      5567.4372      14564.345    
     30400   293.29347     -12203.273     -12203.273     -12137.8        796.46521      14581.737    
     30500   305.67904     -12203.1       -12203.1       -12134.862     -7109.58        14571.434    
     30600   298.71667     -12199.981     -12199.981     -12133.297     -21002.072      14569.538    
     30700   309.33262     -12202.109     -12202.109     -12133.056     -9112.6305      14565.866    
     30800   299.14533     -12202.749     -12202.749     -12135.97      -7902.995       14587.777    
     30900   292.20073     -12202.893     -12202.893     -12137.665     -5604.2846      14586.795    
     31000   307.26168     -12205.263     -12205.263     -12136.672     -14467.389      14578.339    
     31100   292.33702     -12201.503     -12201.503     -12136.244     -10653.922      14580.471    
     31200   312.2465      -12204.25      -12204.25      -12134.547     -4164.1671      14578.972    
     31300   302.5592      -12201.356     -12201.356     -12133.815     -9913.8331      14572.728    
     31400   301.83984     -12202.864     -12202.864     -12135.483     -14969.134      14588.315    
     31500   302.79521     -12204.948     -12204.948     -12137.354     -4365.0384      14572.624    
     31600   294.66919     -12203.46      -12203.46      -12137.681      2869.5371      14570.465    
     31700   298.83513     -12201.733     -12201.733     -12135.023      177.06936      14578.467    
     31800   309.04177     -12202.069     -12202.069     -12133.081     -192.85321      14577.434    
     31900   304.93717     -12201.221     -12201.221     -12133.149      2381.9043      14567.915    
     32000   301.34783     -12201.939     -12201.939     -12134.668     -6156.4616      14568.357    
     32100   306.60478     -12204.408     -12204.408     -12135.964     -5317.8852      14568.861    
     32200   294.12791     -12201.909     -12201.909     -12136.25      -1886.5157      14569.145    
     32300   303.2488      -12202.873     -12202.873     -12135.179      2296.8834      14567.741    
     32400   305.69831     -12202.612     -12202.612     -12134.371      8921.7963      14559.849    
     32500   304.00371     -12201.387     -12201.387     -12133.524      4181.1934      14575.588    
     32600   302.03704     -12200.891     -12200.891     -12133.467     -6680.4448      14579.757    
     32700   299.54161     -12202.457     -12202.457     -12135.59      -154.868        14576.004    
     32800   296.96744     -12203.698     -12203.698     -12137.405     -8667.1593      14573.001    
     32900   295.06143     -12202.926     -12202.926     -12137.059     -1956.1402      14573.506    
     33000   300.19893     -12200.682     -12200.682     -12133.668      2443.6709      14570.138    
     33100   297.2798      -12199.561     -12199.561     -12133.199      1671.3394      14563.154    
     33200   305.03311     -12201.677     -12201.677     -12133.584     -6604.7725      14549.231    
     33300   303.72132     -12203.346     -12203.346     -12135.545     -11932.56       14568.004    
     33400   292.6215      -12203.226     -12203.226     -12137.904      7724.0798      14563.851    
     33500   292.71414     -12202.423     -12202.423     -12137.08       4381.2616      14575.029    
     33600   305.98452     -12203.66      -12203.66      -12135.354      949.69364      14591.502    
     33700   308.11198     -12203.5       -12203.5       -12134.719      3338.2059      14562.587    
     33800   300.28561     -12201.814     -12201.814     -12134.78      -6720.506       14576.889    
     33900   318.20165     -12204.142     -12204.142     -12133.109     -6077.9627      14578.305    
     34000   301.499       -12200.311     -12200.311     -12133.007     -9436.1957      14576.101    
     34100   300.32359     -12202.321     -12202.321     -12135.279     -4205.77        14568.823    
     34200   300.3519      -12203.899     -12203.899     -12136.851     -8414.9643      14578.873    
     34300   299.30195     -12203.847     -12203.847     -12137.033     -2708.6595      14584.241    
     34400   306.92111     -12203.71      -12203.71      -12135.195      1960.7126      14571.458    
     34500   301.61988     -12199.504     -12199.504     -12132.173     -11257.126      14589.397    
     34600   307.07837     -12200.651     -12200.651     -12132.101      15974.925      14571.918    
     34700   294.92086     -12200.715     -12200.715     -12134.879      11707.133      14578.772    
     34800   300.1445      -12203.088     -12203.088     -12136.086      15650.739      14568.935    
     34900   301.22573     -12203.391     -12203.391     -12136.148     -5138.0079      14588.883    
     35000   289.87584     -12201.764     -12201.764     -12137.054     -1426.1878      14589.555    
     35100   300.86856     -12202.192     -12202.192     -12135.028     -15622.863      14595.89     
     35200   305.62861     -12200.384     -12200.384     -12132.158     -17881.316      14584.539    
     35300   301.05262     -12199.499     -12199.499     -12132.295     -955.08671      14569.898    
     35400   301.55551     -12201.64      -12201.64      -12134.323     -6182.0217      14582.715    
     35500   295.45533     -12202.774     -12202.774     -12136.819      1300.8764      14580.541    
     35600   294.80699     -12202.555     -12202.555     -12136.745      2044.1166      14576.421    
     35700   310.60614     -12204.071     -12204.071     -12134.734     -2130.7427      14579.891    
     35800   302.50282     -12200.921     -12200.921     -12133.392     -14945.365      14590.712    
     35900   297.30725     -12200.808     -12200.808     -12134.439      18055.128      14576.172    
     36000   291.02277     -12202.465     -12202.465     -12137.499      12877.164      14571.648    
     36100   289.99827     -12203.83      -12203.83      -12139.093      4478.8359      14577.976    
     36200   302.42526     -12205.634     -12205.634     -12138.123      13556.033      14565.463    
     36300   292.04634     -12202.462     -12202.462     -12137.268     -11560.952      14578.405    
     36400   309.22731     -12203.513     -12203.513     -12134.483      10028.154      14552.09     
     36500   299.06642     -12201.344     -12201.344     -12134.582     -3965.3984      14567.61     
     36600   301.01487     -12201.957     -12201.957     -12134.761     -2690.7338      14563.314    
     36700   304.86233     -12200.99      -12200.99      -12132.935     -537.69716      14564.502    
     36800   302.61732     -12199.899     -12199.899     -12132.345     -3091.1432      14572.837    
     36900   306.20436     -12202.702     -12202.702     -12134.347      8052.1246      14563.837    
     37000   294.06686     -12202.708     -12202.708     -12137.063     -2258.2643      14569.164    
     37100   302.228       -12204.349     -12204.349     -12136.882      5866.7941      14568.309    
     37200   304.79915     -12202.992     -12202.992     -12134.951      11005.803      14574.726    
     37300   302.09602     -12201.006     -12201.006     -12133.568     -7270.3504      14575.317    
     37400   301.80459     -12201.425     -12201.425     -12134.053     -10308.646      14575.279    
     37500   304.41474     -12202.437     -12202.437     -12134.482      3966.0629      14565.911    
     37600   304.21543     -12203.68      -12203.68      -12135.769      10362.665      14580.327    
     37700   291.93647     -12202.342     -12202.342     -12137.172      9834.5689      14574.068    
     37800   297.53168     -12201.809     -12201.809     -12135.391      17911.175      14577.933    
     37900   302.53397     -12199.628     -12199.628     -12132.093      9609.7366      14570.357    
     38000   306.77123     -12201.392     -12201.392     -12132.911      17695.419      14578.704    
     38100   297.79067     -12201.756     -12201.756     -12135.28       13590.096      14556.549    
     38200   301.47201     -12203.704     -12203.704     -12136.406     -5949.204       14574.903    
     38300   300.02608     -12203.427     -12203.427     -12136.452     -15624.52       14581.208    
     38400   295.33218     -12201.693     -12201.693     -12135.765     -14838.43       14582.023    
     38500   316.66819     -12202.362     -12202.362     -12131.672     -16175.2        14597.314    
     38600   310.46525     -12200.883     -12200.883     -12131.577      9782.6273      14589.872    
     38700   301.05497     -12201.254     -12201.254     -12134.049      1529.8553      14593.254    
     38800   302.55892     -12203.213     -12203.213     -12135.672     -6445.371       14584.245    
     38900   296.90748     -12202.119     -12202.119     -12135.84      -844.7857       14587.081    
     39000   302.06878     -12202.936     -12202.936     -12135.505      484.75073      14578.367    
     39100   291.29709     -12201.133     -12201.133     -12136.106     -13180.766      14579.853    
     39200   299.05753     -12202.732     -12202.732     -12135.972     -9514.5153      14581.694    
     39300   301.12571     -12202.274     -12202.274     -12135.053      3527.6363      14574.63     
     39400   303.67629     -12201.983     -12201.983     -12134.193      4085.749       14571.703    
     39500   297.97251     -12199.634     -12199.634     -12133.117      9181.9547      14571.845    
     39600   303.08625     -12201.799     -12201.799     -12134.14       3031.7962      14566.719    
     39700   293.41294     -12202.582     -12202.582     -12137.083      2792.8187      14562.716    
     39800   292.83553     -12202.792     -12202.792     -12137.422     -5983.2421      14577.419    
     39900   299.91835     -12203.048     -12203.048     -12136.097      7893.3544      14565.751    
     40000   313.61933     -12202.817     -12202.817     -12132.807     -16781.188      14566.157    
     40100   306.90716     -12201.043     -12201.043     -12132.532     -11889.572      14553.944    
     40200   299.24678     -12200.793     -12200.793     -12133.991     -7033.5485      14554.966    
     40300   292.32357     -12200.675     -12200.675     -12135.419     -10108.748      14574.401    
     40400   308.07326     -12204.445     -12204.445     -12135.673     -3346.3386      14559.994    
     40500   287.03326     -12201.95      -12201.95      -12137.875      94.974132      14568.988    
     40600   293.24827     -12204.545     -12204.545     -12139.082      3615.008       14560.456    
     40700   299.15104     -12203.186     -12203.186     -12136.406     -3971.6929      14577.722    
     40800   295.73884     -12200.289     -12200.289     -12134.271      10760.998      14565.164    
     40900   298.69853     -12200.54      -12200.54      -12133.861      12195.971      14557.315    
     41000   301.82409     -12202.326     -12202.326     -12134.949     -4193.8123      14558.825    
     41100   290.13434     -12202.886     -12202.886     -12138.119      2875.5423      14557.557    
     41200   288.96008     -12203.175     -12203.175     -12138.67      -2332.3679      14577.915    
     41300   296.62283     -12203.135     -12203.135     -12136.92       9948.5363      14573.054    
     41400   299.87119     -12202.795     -12202.795     -12135.854      1019.5793      14582.957    
     41500   294.30599     -12200.766     -12200.766     -12135.067     -4538.9437      14581.139    
     41600   307.21553     -12202.336     -12202.336     -12133.755      11251.304      14582.643    
     41700   299.25499     -12201.729     -12201.729     -12134.926      13862.969      14569.224    
     41800   296.46844     -12204.015     -12204.015     -12137.834     -19439.265      14593.504    
     41900   293.8381      -12203.302     -12203.302     -12137.708      10802.257      14566.195    
     42000   297.49537     -12202.317     -12202.317     -12135.906      11664.865      14569.621    
     42100   295.5669      -12200.919     -12200.919     -12134.939      11730.744      14557.071    
     42200   297.44519     -12201.35      -12201.35      -12134.951      7676.2068      14548.481    
     42300   296.61241     -12201.778     -12201.778     -12135.565      19399.816      14560.14     
     42400   297.69669     -12201.673     -12201.673     -12135.217     -9294.0237      14577.064    
     42500   310.01425     -12201.726     -12201.726     -12132.521      725.38164      14581.018    
     42600   304.42352     -12199.449     -12199.449     -12131.492     -1441.2252      14590.417    
     42700   306.85484     -12202.051     -12202.051     -12133.551      3684.674       14585.934    
     42800   285.7684      -12200.455     -12200.455     -12136.662      689.46896      14576.168    
     42900   304.31455     -12204.014     -12204.014     -12136.081      3716.7642      14588.332    
     43000   300.29928     -12202.268     -12202.268     -12135.231      4555.1584      14583.554    
     43100   303.51874     -12201.674     -12201.674     -12133.919      581.47281      14591.699    
     43200   306.43694     -12201.7       -12201.7       -12133.293     -11190.504      14594.864    
     43300   305.63294     -12202.148     -12202.148     -12133.921      15137.907      14570.045    
     43400   298.49067     -12203.518     -12203.518     -12136.885     -1483.308       14580.914    
     43500   293.35639     -12203.038     -12203.038     -12137.551     -1768.3071      14566.434    
     43600   291.97625     -12201.153     -12201.153     -12135.975     -3128.868       14569.955    
     43700   307.35154     -12201.712     -12201.712     -12133.101      18351.337      14558.809    
     43800   305.87277     -12201.061     -12201.061     -12132.78      -10539.149      14578.98     
     43900   308.35167     -12202.814     -12202.814     -12133.979     -4070.7087      14566.621    
     44000   300.56468     -12202.729     -12202.729     -12135.633      93.402252      14576.998    
     44100   298.80463     -12202.968     -12202.968     -12136.265     -6925.0058      14577.34     
     44200   304.63749     -12204.527     -12204.527     -12136.523     -18606.779      14574.985    
     44300   301.83704     -12203.368     -12203.368     -12135.988      6136.0139      14556.535    
     44400   298.70702     -12200.964     -12200.964     -12134.283     -12385.327      14573.251    
     44500   304.21247     -12200.535     -12200.535     -12132.625     -6407.2338      14562.716    
     44600   304.87639     -12200.34      -12200.34      -12132.282     -6387.1403      14558.461    
     44700   296.26773     -12201.421     -12201.421     -12135.285      6297.2901      14555.293    
     44800   291.42669     -12201.898     -12201.898     -12136.842      1283.0549      14571.128    
     44900   297.22936     -12202.111     -12202.111     -12135.76      -1528.8742      14569.266    
     45000   302.75806     -12201.543     -12201.543     -12133.958      23680.422      14547.229    
     45100   311.44803     -12202.543     -12202.543     -12133.018      682.55952      14569.921    
     45200   292.45902     -12201.097     -12201.097     -12135.81      -15371.487      14586.02     
     45300   292.99439     -12202.731     -12202.731     -12137.325      18491.336      14578.814    
     45400   296.12564     -12203.713     -12203.713     -12137.608      17158.996      14570.668    
     45500   295.74762     -12201.712     -12201.712     -12135.692      15972.91       14579.35     
     45600   302.01398     -12200.059     -12200.059     -12132.64       15115.863      14565.21     
     45700   295.83658     -12199.328     -12199.328     -12133.288      6653.8937      14586.622    
     45800   291.36213     -12200.727     -12200.727     -12135.685      3737.219       14575.852    
     45900   292.13012     -12201.361     -12201.361     -12136.148      5164.0559      14571.164    
     46000   293.62492     -12201.036     -12201.036     -12135.489      8038.6497      14581.167    
     46100   302.74717     -12203.318     -12203.318     -12135.735      4370.1992      14576.496    
     46200   303.64188     -12203.677     -12203.677     -12135.894     -1348.3824      14585.623    
     46300   294.53587     -12201.511     -12201.511     -12135.761     -10324.956      14577.302    
     46400   307.02422     -12204.084     -12204.084     -12135.547     -2589.6794      14575.671    
     46500   297.09284     -12202.003     -12202.003     -12135.683      6997.7744      14569.454    
     46600   302.06427     -12202.193     -12202.193     -12134.763     -4088.2364      14578.865    
     46700   300.41915     -12201.529     -12201.529     -12134.465      11096.53       14564.825    
     46800   312.12175     -12205.022     -12205.022     -12135.347      1849.2411      14574.394    
     46900   283.99307     -12202.638     -12202.638     -12139.242     -8326.7142      14572.611    
     47000   298.17007     -12204.543     -12204.543     -12137.982     -3326.6102      14568.999    
     47100   296.13425     -12202.088     -12202.088     -12135.982      4449.142       14567.913    
     47200   299.55591     -12201.228     -12201.228     -12134.357      3967.6682      14561.344    
     47300   307.93817     -12202.389     -12202.389     -12133.647     -5208.9602      14552.637    
     47400   302.86353     -12202.89      -12202.89      -12135.281      1254.2288      14565.209    
     47500   298.43534     -12205.727     -12205.727     -12139.107      1632.8207      14550.345    
     47600   285.85132     -12202.942     -12202.942     -12139.131     -6733.0825      14572.245    
     47700   295.38312     -12202.935     -12202.935     -12136.996     -27964.658      14587.976    
     47800   300.58126     -12202.159     -12202.159     -12135.059     -28050.961      14574.688    
     47900   306.0557      -12202.509     -12202.509     -12134.187     -2423.1351      14575.488    
     48000   305.87352     -12201.798     -12201.798     -12133.517      3295.0042      14572.388    
     48100   295.84336     -12199.808     -12199.808     -12133.766      8744.9108      14574.839    
     48200   298.4767      -12202.675     -12202.675     -12136.046      10271.562      14568.097    
     48300   292.6497      -12203.01      -12203.01      -12137.681      17435.696      14565.132    
     48400   301.97766     -12203.787     -12203.787     -12136.376      794.78695      14564.912    
     48500   294.64311     -12199.994     -12199.994     -12134.22      -6238.7189      14573.308    
     48600   303.07142     -12199.924     -12199.924     -12132.269      5988.8061      14564.783    
     48700   298.2776      -12199.677     -12199.677     -12133.092      6858.0571      14563.984    
     48800   296.52456     -12200.586     -12200.586     -12134.392     -7443.4979      14566.745    
     48900   300.12073     -12202.645     -12202.645     -12135.648     -2724.7751      14560.851    
     49000   298.44323     -12203.2       -12203.2       -12136.577      5461.8692      14561.767    
     49100   299.92042     -12204.694     -12204.694     -12137.742      7335.6309      14553.808    
     49200   288.54397     -12203.775     -12203.775     -12139.362      11519.294      14566.836    
     49300   290.80498     -12202.005     -12202.005     -12137.088      6779.0714      14562.575    
     49400   299.53185     -12201.452     -12201.452     -12134.587      15996.746      14569.55     
     49500   309.90783     -12203.282     -12203.282     -12134.101      1418.0229      14577.62     
     49600   293.12858     -12199.791     -12199.791     -12134.355     -20110.222      14582.686    
     49700   300.27806     -12202.662     -12202.662     -12135.63       6239.834       14576.23     
     49800   297.20825     -12204.307     -12204.307     -12137.96      -10130.098      14591.589    
     49900   284.97003     -12202.392     -12202.392     -12138.777     -11008.107      14585.495    
     50000   297.74294     -12202.356     -12202.356     -12135.89       663.30426      14581.219    
     50100   306.21539     -12202.135     -12202.135     -12133.778     -6639.1622      14589.819    
     50200   294.77938     -12200.403     -12200.403     -12134.599      4750.1601      14579.663    
     50300   298.88424     -12202.776     -12202.776     -12136.055      7427.0406      14580.533    
     50400   296.65914     -12203.529     -12203.529     -12137.305      690.26152      14581.507    
     50500   302.05964     -12204.832     -12204.832     -12137.403     -339.73227      14580.325    
     50600   298.62621     -12201.793     -12201.793     -12135.13       3734.8068      14575.105    
     50700   304.69293     -12201.173     -12201.173     -12133.156      14739.302      14570.439    
     50800   298.12045     -12200.417     -12200.417     -12133.867     -3492.3552      14590.321    
     50900   302.5065      -12203.568     -12203.568     -12136.039      19001.108      14575.315    
     51000   294.15389     -12203.994     -12203.994     -12138.33       2184.8872      14571.219    
     51100   300.79683     -12205.147     -12205.147     -12138         -19102.836      14573.138    
     51200   293.35854     -12202.572     -12202.572     -12137.085      4837.431       14559.762    
     51300   293.9651      -12200.829     -12200.829     -12135.207      16360.131      14565.101    
     51400   304.39275     -12202         -12202         -12134.05      -331.66357      14562.467    
     51500   303.5148      -12202.469     -12202.469     -12134.715     -4016.0788      14569.152    
     51600   294.56011     -12202.282     -12202.282     -12136.527     -15020.872      14563.414    
     51700   282.30423     -12203.164     -12203.164     -12140.145     -4551.2751      14555.525    
     51800   291.20299     -12203.999     -12203.999     -12138.993      10905.286      14567.646    
     51900   307.29794     -12204.911     -12204.911     -12136.312     -16713.984      14572.082    
     52000   294.48395     -12201.348     -12201.348     -12135.609     -21957.16       14569.2      
     52100   297.37221     -12200.571     -12200.571     -12134.188      16853.115      14553.871    
     52200   310.13651     -12202.186     -12202.186     -12132.954      4372.5187      14544.873    
     52300   303.09052     -12201.648     -12201.648     -12133.988     -21506.584      14564.728    
     52400   297.34649     -12203.622     -12203.622     -12137.245      165.60397      14575.646    
     52500   296.10254     -12203.758     -12203.758     -12137.658     -1345.7766      14574.279    
     52600   303.78138     -12203.439     -12203.439     -12135.625     -10513.017      14575.027    
     52700   304.65533     -12201.904     -12201.904     -12133.896     -12635.732      14586.082    
     52800   301.89959     -12201.317     -12201.317     -12133.924     -3873.5815      14581.43     
     52900   304.55144     -12203.12      -12203.12      -12135.134      6662.5579      14593.594    
     53000   303.98643     -12203.292     -12203.292     -12135.432      33492.865      14553.283    
     53100   293.63311     -12200.604     -12200.604     -12135.056      5358.7235      14579.737    
     53200   301.30573     -12202.199     -12202.199     -12134.938     -15070.821      14580.108    
     53300   303.58029     -12203.4       -12203.4       -12135.631      3943.5989      14569.449    
     53400   293.44823     -12202.214     -12202.214     -12136.707     -16138.088      14573.437    
     53500   296.24828     -12202.761     -12202.761     -12136.629      1469.3841      14570.68     
     53600   292.16142     -12200.411     -12200.411     -12135.191      27846.86       14553.309    
     53700   299.4388      -12199.606     -12199.606     -12132.762      4374.1704      14566.286    
     53800   315.29067     -12202.221     -12202.221     -12131.838     -11087.567      14579.501    
     53900   299.56379     -12201.838     -12201.838     -12134.966     -12260.106      14577.576    
     54000   296.4874      -12203.025     -12203.025     -12136.839     -10021.228      14585.604    
     54100   296.66636     -12202.394     -12202.394     -12136.168      11197.908      14572.706    
     54200   306.04905     -12202.265     -12202.265     -12133.945      8261.5298      14572.922    
     54300   296.89221     -12199.527     -12199.527     -12133.251     -3068.6635      14584.813    
     54400   309.56341     -12203.776     -12203.776     -12134.672      7773.3702      14589.234    
     54500   289.73933     -12202.535     -12202.535     -12137.856      4518.5076      14583.61     
     54600   296.87354     -12202.922     -12202.922     -12136.65       3205.2813      14584.398    
     54700   301.82406     -12201.717     -12201.717     -12134.34       4888.1662      14580.735    
     54800   303.71379     -12202.105     -12202.105     -12134.306     -8873.9955      14583.681    
     54900   295.64183     -12202.028     -12202.028     -12136.031     -1270.9207      14583.686    
     55000   290.52167     -12202.622     -12202.622     -12137.768      7150.3274      14581.749    
     55100   293.7419      -12206.283     -12206.283     -12140.71       6529.4404      14567.273    
     55200   302.17204     -12207.455     -12207.455     -12140          3210.15        14558.277    
     55300   296.0803      -12203.158     -12203.158     -12137.063      1862.7762      14573.903    
     55400   304.65386     -12203.37      -12203.37      -12135.361      7851.4398      14556.105    
     55500   300.61203     -12202.219     -12202.219     -12135.113     -5783.8067      14581.511    
     55600   299.64308     -12200.707     -12200.707     -12133.817      8816.7449      14559.362    
     55700   314.56215     -12201.756     -12201.756     -12131.536      8949.2246      14557.66     
     55800   299.41883     -12199.611     -12199.611     -12132.771     -14813.274      14564.321    
     55900   300.54427     -12203.116     -12203.116     -12136.024     -8604.5901      14569.782    
     56000   294.46365     -12202.158     -12202.158     -12136.425      14672.052      14553.252    
     56100   292.56795     -12201.153     -12201.153     -12135.843      17146.46       14540.159    
     56200   302.58181     -12201.615     -12201.615     -12134.069     -10147.246      14570.103    
     56300   316.90716     -12201.926     -12201.926     -12131.182     -3517.8493      14555.447    
     56400   303.74375     -12200.167     -12200.167     -12132.361     -7895.593       14570.799    
     56500   299.1666      -12201.174     -12201.174     -12134.39      -4797.9301      14576.151    
     56600   294.71097     -12200.965     -12200.965     -12135.176      9756.7517      14566.267    
     56700   300.94366     -12202.809     -12202.809     -12135.628     -1993.7824      14578.029    
     56800   297.18444     -12203.377     -12203.377     -12137.036      3860.9929      14575.623    
     56900   294.01693     -12203.512     -12203.512     -12137.878     -6599.9847      14580.999    
     57000   308.60729     -12204.499     -12204.499     -12135.607     -4450.383       14578.254    
     57100   307.729       -12201.982     -12201.982     -12133.286     -14549.814      14589.922    
     57200   295.55714     -12199.424     -12199.424     -12133.446     -11340.279      14581.34     
     57300   303.29779     -12202.667     -12202.667     -12134.962      1427.1459      14571.218    
     57400   293.63806     -12203.874     -12203.874     -12138.325     -4906.408       14581.309    
     57500   297.86194     -12205.506     -12205.506     -12139.014     -17739.662      14582.468    
     57600   299.72502     -12204.933     -12204.933     -12138.025      8874.5338      14577.704    
     57700   291.37178     -12200.874     -12200.874     -12135.83       4660.783       14573.413    
     57800   303.30618     -12201.648     -12201.648     -12133.941     -12785.679      14587.23     
     57900   305.09206     -12201.9       -12201.9       -12133.793     -3518.9705      14581.468    
     58000   302.1743      -12203.558     -12203.558     -12136.103      5537.0322      14581.13     
     58100   290.25284     -12202.657     -12202.657     -12137.863     -14982.637      14586.728    
     58200   300.08403     -12203.98      -12203.98      -12136.992     -8836.784       14585.138    
     58300   295.06059     -12201.461     -12201.461     -12135.594     -6794.2925      14580.813    
     58400   295.77864     -12200.363     -12200.363     -12134.336      1193.2629      14577.431    
     58500   309.35782     -12201.802     -12201.802     -12132.743      18649.524      14568.025    
     58600   300.5756      -12200.229     -12200.229     -12133.131     -2292.0567      14593.15     
     58700   299.58846     -12203.036     -12203.036     -12136.158      1787.4483      14579.818    
     58800   300.50783     -12205.028     -12205.028     -12137.945      12723.282      14570.221    
     58900   302.7379      -12204.838     -12204.838     -12137.257     -4188.2065      14565.211    
     59000   298.89717     -12201.47      -12201.47      -12134.746     -21898.354      14582.213    
     59100   306.80796     -12201.816     -12201.816     -12133.327      6455.1484      14560.4      
     59200   296.28794     -12200.199     -12200.199     -12134.058      633.28046      14572.57     
     59300   305.67913     -12202.955     -12202.955     -12134.717      4422.5114      14572.043    
     59400   296.88871     -12201.844     -12201.844     -12135.569      17069.937      14564.725    
     59500   295.96485     -12202.374     -12202.374     -12136.305      11258.957      14564.601    
     59600   300.85301     -12205.846     -12205.846     -12138.686     -20768.586      14572.401    
     59700   290.07192     -12203.482     -12203.482     -12138.729     -15817.932      14569.064    
     59800   300.09856     -12202.777     -12202.777     -12135.786      1169.4428      14566.468    
     59900   300.77976     -12201.839     -12201.839     -12134.695      9219.5618      14563.85     
     60000   297.22221     -12201.009     -12201.009     -12134.66       5135.5964      14564.513    
     60100   298.96469     -12201.346     -12201.346     -12134.607      18610.564      14556.84     
     60200   296.68655     -12202.157     -12202.157     -12135.926      9681.0114      14560.652    
     60300   293.64083     -12203.857     -12203.857     -12138.307     -3286.8389      14570.351    
     60400   294.34119     -12203.489     -12203.489     -12137.783      9169.3874      14578.562    
     60500   303.75184     -12202.619     -12202.619     -12134.812      14597.711      14567.035    
     60600   302.72361     -12201.69      -12201.69      -12134.112      10092.008      14567.899    
     60700   300.34222     -12201.77      -12201.77      -12134.724      2126.664       14572.006    
     60800   290.82176     -12201.454     -12201.454     -12136.533      19299.048      14569.896    
     60900   294.07765     -12204.581     -12204.581     -12138.933      1011.3495      14578.143    
     61000   283.49465     -12203.057     -12203.057     -12139.772     -12232.659      14581.815    
     61100   297.09018     -12202.875     -12202.875     -12136.555      3869.9041      14576.503    
     61200   305.70521     -12202.418     -12202.418     -12134.175     -8996.1341      14583.54     
     61300   300.22705     -12200.939     -12200.939     -12133.919      3572.5792      14582.932    
     61400   294.81954     -12201.51      -12201.51      -12135.697      353.12922      14593.471    
     61500   294.92034     -12202.964     -12202.964     -12137.128     -3771.6846      14575.539    
     61600   300.73874     -12203.859     -12203.859     -12136.725      2051.8579      14584.408    
     61700   301.48604     -12200.618     -12200.618     -12133.317     -5797.8334      14584.602    
     61800   303.80377     -12200.521     -12200.521     -12132.702     -2647.2813      14576.424    
     61900   297.89945     -12200.73      -12200.73      -12134.229     -3386.0372      14570.673    
     62000   301.20449     -12203.512     -12203.512     -12136.274     -4845.5042      14573.417    
     62100   304.51559     -12204.381     -12204.381     -12136.403     -8142.4439      14573.453    
     62200   293.61602     -12201.296     -12201.296     -12135.751      9908.95        14570.631    
     62300   307.03035     -12202.808     -12202.808     -12134.269      10796.76       14572.034    
     62400   300.97159     -12201.808     -12201.808     -12134.621     -7819.5367      14576.12     
     62500   290.13279     -12200.061     -12200.061     -12135.294     -22197.696      14586.677    
     62600   296.91537     -12203.063     -12203.063     -12136.782      2946.4849      14573.491    
     62700   292.31277     -12202.834     -12202.834     -12137.58      -665.09475      14565.942    
     62800   298.09255     -12203.496     -12203.496     -12136.953      2517.2248      14561.674    
     62900   309.77424     -12202.776     -12202.776     -12133.625      10096.544      14559.246    
     63000   302.65645     -12200.721     -12200.721     -12133.158     -11536.506      14565.363    
     63100   310.01003     -12204.026     -12204.026     -12134.822     -7741.2349      14563.142    
     63200   294.67655     -12202.621     -12202.621     -12136.84       8112.6417      14561.194    
     63300   296.37473     -12202.62      -12202.62      -12136.459      10040.132      14559.367    
     63400   294.47371     -12200.683     -12200.683     -12134.947      14905.376      14559.496    
     63500   300.78158     -12201.683     -12201.683     -12134.538      3446.7008      14572.656    
     63600   300.02424     -12202.021     -12202.021     -12135.046      15353.995      14578.444    
     63700   296.19725     -12201.44      -12201.44      -12135.319     -3453.5559      14585.734    
     63800   300.44228     -12202.485     -12202.485     -12135.416     -3414.4303      14585.832    
     63900   299.00351     -12202.266     -12202.266     -12135.519     -9967.4031      14584.394    
     64000   301.68301     -12201.875     -12201.875     -12134.53       17615.017      14553.174    
     64100   302.58737     -12199.962     -12199.962     -12132.415     -1844.049       14566.637    
     64200   303.73423     -12199.353     -12199.353     -12131.55      -2113.0368      14578.886    
     64300   305.09604     -12202.917     -12202.917     -12134.809      12525.186      14559.867    
     64400   300.79555     -12203.583     -12203.583     -12136.436      7346.3308      14563.634    
     64500   297.51652     -12202.751     -12202.751     -12136.336      3355.8605      14580.148    
     64600   301.71856     -12202.655     -12202.655     -12135.301      18333.597      14562.041    
     64700   304.3125      -12200.939     -12200.939     -12133.006      6183.8299      14571.854    
     64800   306.23665     -12199.907     -12199.907     -12131.545      632.21145      14575.015    
     64900   305.83379     -12202.554     -12202.554     -12134.282     -2302.8323      14571.615    
     65000   293.61561     -12202.59      -12202.59      -12137.046      2650.0641      14576.555    
     65100   292.93207     -12202.934     -12202.934     -12137.542     -967.92991      14582.232    
     65200   297.05363     -12201.765     -12201.765     -12135.453      16463.586      14580.571    
     65300   301.93662     -12200.811     -12200.811     -12133.409     -1861.6395      14591.322    
     65400   308.47161     -12201.815     -12201.815     -12132.954     -10242.211      14587.137    
     65500   300.96641     -12201.969     -12201.969     -12134.783      3363.5972      14570.026    
     65600   303.59975     -12203.03      -12203.03      -12135.256     -17315.095      14579.109    
     65700   293.44269     -12201.701     -12201.701     -12136.195     -8270.1644      14572.868    
     65800   301.917       -12203.549     -12203.549     -12136.152     -8290.753       14588.996    
     65900   302.11632     -12202.224     -12202.224     -12134.782      7270.0398      14580.429    
     66000   304.60821     -12200.513     -12200.513     -12132.514     -403.12982      14588.513    
     66100   308.13489     -12200.946     -12200.946     -12132.16       15561.113      14576.249    
     66200   295.31984     -12202.097     -12202.097     -12136.172     -5194.6518      14587.481    
     66300   301.10655     -12204.357     -12204.357     -12137.141      11726.979      14580.6      
     66400   289.1524      -12201.893     -12201.893     -12137.345     -9788.4819      14595.17     
     66500   299.84724     -12201.813     -12201.813     -12134.877      4018.2053      14582.901    
     66600   313.13898     -12203.051     -12203.051     -12133.148      13971.765      14574.881    
     66700   304.70747     -12201.865     -12201.865     -12133.844     -7150.7039      14572.102    
     66800   301.99597     -12202.507     -12202.507     -12135.092     -3031.2827      14572.804    
     66900   302.3722      -12202.921     -12202.921     -12135.422     -9034.4437      14557.729    
     67000   301.16678     -12202.63      -12202.63      -12135.4       -1814.5635      14561.118    
     67100   295.33781     -12201.738     -12201.738     -12135.809      681.83844      14558.285    
     67200   292.75534     -12203.297     -12203.297     -12137.944     -10594.505      14565.532    
     67300   298.84027     -12205.263     -12205.263     -12138.552      14339.441      14553.488    
     67400   297.95866     -12202.595     -12202.595     -12136.081      18094.031      14559.584    
     67500   301.27452     -12201.129     -12201.129     -12133.875     -9278.6237      14564.667    
     67600   305.50493     -12201.794     -12201.794     -12133.595     -2751.9905      14562.587    
     67700   302.69167     -12201.942     -12201.942     -12134.371      3887.8345      14557.16     
     67800   296.74616     -12203.749     -12203.749     -12137.506     -8276.8445      14567.628    
     67900   295.47592     -12203.583     -12203.583     -12137.624     -2551.3108      14568.238    
     68000   299.07948     -12203.018     -12203.018     -12136.253     -12916.653      14577.082    
     68100   293.90432     -12200.634     -12200.634     -12135.025     -5595.9281      14583.75     
     68200   308.84839     -12202.862     -12202.862     -12133.917     -1726.8212      14587.125    
     68300   294.89366     -12200.74      -12200.74      -12134.91      -13156.274      14587.654    
     68400   293.11923     -12203.213     -12203.213     -12137.779      5895.5027      14581.678    
     68500   294.39407     -12205.696     -12205.696     -12139.978      7838.2728      14580.956    
     68600   295.17868     -12203.806     -12203.806     -12137.913      15061.781      14570.679    
     68700   292.02395     -12201.028     -12201.028     -12135.839      3589.3039      14571.113    
     68800   304.04485     -12202.245     -12202.245     -12134.373      10101.728      14579.224    
     68900   300.059       -12200.804     -12200.804     -12133.821      5409.3291      14575.197    
     69000   300.73922     -12202.21      -12202.21      -12135.076     -4028.3892      14583.441    
     69100   301.75094     -12205.368     -12205.368     -12138.007     -6728.7987      14575.212    
     69200   292.60671     -12203.948     -12203.948     -12138.629     -12872.541      14584.595    
     69300   302.8396      -12203.598     -12203.598     -12135.994     -20501.894      14589.091    
     69400   296.6046      -12201.05      -12201.05      -12134.839     -9519.5033      14573.037    
     69500   301.44678     -12201.489     -12201.489     -12134.197      29249.133      14551.046    
     69600   305.93242     -12201.678     -12201.678     -12133.384      7233.205       14560        
     69700   296.9337      -12200.762     -12200.762     -12134.477     -4415.4389      14569.549    
     69800   296.70459     -12204.039     -12204.039     -12137.805      10736.321      14567.68     
     69900   291.02792     -12203.14      -12203.14      -12138.173      11195.996      14579.528    
     70000   299.99256     -12202.656     -12202.656     -12135.688      8393.8727      14572.4      
     70100   300.35803     -12201.489     -12201.489     -12134.439      4826.9945      14578.178    
     70200   301.78931     -12201.889     -12201.889     -12134.52      -23701.542      14591.371    
     70300   297.62308     -12201.684     -12201.684     -12135.245     -17922.414      14594.446    
     70400   297.88918     -12203.456     -12203.456     -12136.958      8963.6028      14571.803    
     70500   285.73723     -12203.147     -12203.147     -12139.362      7044.7256      14570.144    
     70600   287.98967     -12203.067     -12203.067     -12138.778      9504.3617      14582.798    
     70700   309.59134     -12204.294     -12204.294     -12135.184      9750.3439      14565.106    
     70800   294.60566     -12200.407     -12200.407     -12134.642      5979.4637      14562.833    
     70900   298.31673     -12200.893     -12200.893     -12134.3        4.7407327      14558.196    
     71000   298.11944     -12200.529     -12200.529     -12133.979     -24790.919      14589.96     
     71100   306.43864     -12202.812     -12202.812     -12134.405     -7346.8083      14555.759    
     71200   298.70946     -12203.852     -12203.852     -12137.17       2878.8775      14580.738    
     71300   290.29566     -12202.217     -12202.217     -12137.414     -9157.2912      14579.909    
     71400   303.12518     -12202.797     -12202.797     -12135.13       9195.4846      14565.089    
     71500   297.43566     -12199.865     -12199.865     -12133.468      17009.558      14558.591    
     71600   300.92512     -12200.606     -12200.606     -12133.429     -5057.9327      14573.628    
     71700   299.43291     -12201.037     -12201.037     -12134.194      3144.7993      14560.314    
     71800   300.17752     -12201.767     -12201.767     -12134.757     -13895.725      14573.383    
     71900   298.50979     -12202.114     -12202.114     -12135.477      5926.9919      14557.827    
     72000   292.26487     -12201.228     -12201.228     -12135.985     -19760.802      14566.538    
     72100   306.74486     -12203.685     -12203.685     -12135.21       4049.9025      14556.13     
     72200   298.91379     -12200.288     -12200.288     -12133.561      12004.594      14557.922    
     72300   309.88619     -12201.128     -12201.128     -12131.952      5490.0168      14555.772    
     72400   296.94506     -12199.898     -12199.898     -12133.61      -15469.276      14579.253    
     72500   301.36624     -12203.979     -12203.979     -12136.704      18106.202      14557.428    
     72600   299.09151     -12204.072     -12204.072     -12137.305     -1422.2883      14579.52     
     72700   296.44041     -12202.619     -12202.619     -12136.444      1205.655       14579.695    
     72800   306.27211     -12202.004     -12202.004     -12133.634      4398.4405      14582.5      
     72900   305.13182     -12200.708     -12200.708     -12132.592     -7199.2939      14583.575    
     73000   308.64508     -12202.16      -12202.16      -12133.26       6272.1995      14572.595    
     73100   309.06778     -12203.446     -12203.446     -12134.452     -5543.6845      14582.014    
     73200   299.27703     -12202.889     -12202.889     -12136.081      7430.2379      14574.82     
     73300   301.8774      -12203.967     -12203.967     -12136.578     -7743.0746      14583.095    
     73400   299.17325     -12202.486     -12202.486     -12135.701     -4205.2912      14587.602    
     73500   310.36576     -12201.514     -12201.514     -12132.23       6795.1843      14577.149    
[...]
    181900   310.30072     -12205.764     -12205.764     -12136.495      8436.8078      14562.574    
    182000   288.15134     -12202.62      -12202.62      -12138.295     -4472.0164      14574.901    
    182100   297.64681     -12203.621     -12203.621     -12137.177     -20984.058      14588.947    
    182200   298.0212      -12202.842     -12202.842     -12136.314      13077.953      14560.796    
    182300   300.67251     -12202.463     -12202.463     -12135.343      3467.5485      14572.143    
    182400   304.3445      -12202.985     -12202.985     -12135.046     -15150.637      14574.919    
    182500   288.59624     -12201.096     -12201.096     -12136.672      12093.279      14570.328    
    182600   298.13196     -12204.524     -12204.524     -12137.971     -6693.1388      14573.288    
    182700   303.9759      -12204.409     -12204.409     -12136.552     -26702.967      14576.639    
    182800   311.2743      -12203.308     -12203.308     -12133.822     -8098.2352      14585.902    
    182900   304.12068     -12200.907     -12200.907     -12133.017     -12630.487      14592.927    
    183000   304.10665     -12202.209     -12202.209     -12134.322      11721.63       14566.461    
    183100   294.26898     -12203.681     -12203.681     -12137.991     -3282.7898      14576.158    
    183200   299.7799      -12204.959     -12204.959     -12138.038      7168.059       14581.987    
    183300   294.40452     -12202.256     -12202.256     -12136.536      7390.6813      14576.895    
    183400   299.68881     -12201.468     -12201.468     -12134.567     -17142.618      14591.833    
    183500   303.24322     -12201.231     -12201.231     -12133.537     -4371.6253      14575.682    
    183600   301.93033     -12202.394     -12202.394     -12134.993      7521.7284      14565.546    
    183700   293.93554     -12203.661     -12203.661     -12138.045      531.82447      14570.76     
    183800   291.15859     -12203.079     -12203.079     -12138.083      4633.5071      14572.05     
    183900   298.64026     -12203.613     -12203.613     -12136.947      3142.2388      14561.616    
    184000   303.28917     -12202.827     -12202.827     -12135.123     -16657.94       14580.455    
    184100   306.10251     -12201.844     -12201.844     -12133.512     -6027.1123      14574.477    
    184200   304.39322     -12201.737     -12201.737     -12133.786      482.63945      14579.46     
    184300   297.27929     -12202.746     -12202.746     -12136.384      3101.0065      14575.914    
    184400   289.27156     -12203.459     -12203.459     -12138.884     -4003.7982      14575.098    
    184500   299.23483     -12204.741     -12204.741     -12137.942      9168.3268      14565.432    
    184600   304.118       -12204.128     -12204.128     -12136.239     -2376.6517      14574.086    
    184700   298.33732     -12202.279     -12202.279     -12135.68      -23398.858      14592.089    
    184800   298.87359     -12202.006     -12202.006     -12135.287      16569.817      14554.668    
    184900   311.63171     -12202.67      -12202.67      -12133.104     -1462.5486      14565.488    
    185000   310.86806     -12201.009     -12201.009     -12131.613     -22774.201      14572.576    
    185100   300.66633     -12201.799     -12201.799     -12134.68      -17277.281      14568.761    
    185200   290.1112      -12201.75      -12201.75      -12136.988      4225.2542      14563.977    
    185300   298.75643     -12203.264     -12203.264     -12136.572      19174.065      14552.674    
    185400   307.65025     -12203.199     -12203.199     -12134.522     -1403.0984      14578.338    
    185500   308.30646     -12202.492     -12202.492     -12133.668     -20074.428      14587.711    
    185600   298.40134     -12200.623     -12200.623     -12134.011     -1941.308       14570.673    
    185700   301.1358      -12203.359     -12203.359     -12136.136     -584.90322      14564.167    
    185800   304.22947     -12206.192     -12206.192     -12138.278      10159.909      14554.943    
    185900   286.31922     -12202.101     -12202.101     -12138.185     -21083.206      14582.518    
    186000   306.59577     -12203.574     -12203.574     -12135.132     -3378.6365      14568.205    
    186100   302.91094     -12201.707     -12201.707     -12134.087     -1026.3723      14577.913    
    186200   297.0055      -12200.741     -12200.741     -12134.44       1044.8188      14573.78     
    186300   304.03516     -12202.58      -12202.58      -12134.709     -8359.9883      14581.868    
    186400   301.1687      -12204.118     -12204.118     -12136.888      10186.863      14555.066    
    186500   286.69478     -12203.122     -12203.122     -12139.122      9384.1074      14554.091    
    186600   296.10983     -12203.398     -12203.398     -12137.296     -17299.935      14568.168    
    186700   307.90345     -12203.987     -12203.987     -12135.253     -11411.923      14584.305    
    186800   298.19527     -12200.955     -12200.955     -12134.389      8042.8931      14581.415    
    186900   308.10223     -12202.825     -12202.825     -12134.046     -11854.613      14584.703    
    187000   296.10144     -12200.572     -12200.572     -12134.473     -14205.36       14585.226    
    187100   295.18049     -12200.481     -12200.481     -12134.588      9078.5087      14565.777    
    187200   301.04655     -12202.075     -12202.075     -12134.872     -4410.7176      14585.646    
    187300   306.52314     -12203.808     -12203.808     -12135.382      4722.8203      14577.345    
    187400   293.35248     -12202.081     -12202.081     -12136.595      17648.098      14568.968    
    187500   295.09483     -12203.407     -12203.407     -12137.532      13915.244      14567.662    
    187600   300.79297     -12205.31      -12205.31      -12138.164     -4833.1137      14567.336    
    187700   289.5345      -12201.733     -12201.733     -12137.1        1198.8497      14577.176    
    187800   298.07878     -12200.911     -12200.911     -12134.371      16088.728      14575.803    
    187900   305.95147     -12200.92      -12200.92      -12132.622      10930.639      14570.721    
    188000   305.12866     -12201.807     -12201.807     -12133.693      7731.903       14584.631    
    188100   293.28244     -12201.888     -12201.888     -12136.418     -11977.362      14589.436    
    188200   303.36879     -12204.475     -12204.475     -12136.753      4872.675       14557.965    
    188300   298.573       -12202.973     -12202.973     -12136.322      6665.5996      14559.927    
    188400   302.31618     -12202.031     -12202.031     -12134.544     -7935.9274      14567.156    
    188500   297.61808     -12200.693     -12200.693     -12134.255     -1863.9407      14558.835    
    188600   298.94715     -12203.033     -12203.033     -12136.298      335.869        14565.766    
    188700   294.31743     -12204.175     -12204.175     -12138.474      10247.047      14575.169    
    188800   295.59085     -12203.365     -12203.365     -12137.38       4816.9248      14563.724    
    188900   307.33197     -12203.266     -12203.266     -12134.659     -13316.198      14573.628    
    189000   301.07754     -12201.474     -12201.474     -12134.264     -1231.2615      14570.92     
    189100   300.38604     -12202.085     -12202.085     -12135.029      17221.014      14564.297    
    189200   300.27762     -12203.251     -12203.251     -12136.219      4173.6007      14571.778    
    189300   293.72584     -12204.885     -12204.885     -12139.316     -14502.798      14580.453    
    189400   291.66227     -12205.092     -12205.092     -12139.984     -10218.129      14585.637    
    189500   295.91353     -12202.399     -12202.399     -12136.342      2975.1693      14576.844    
    189600   305.25245     -12203.34      -12203.34      -12135.198      14025.362      14573.283    
    189700   300.04549     -12200.994     -12200.994     -12134.014     -792.65864      14581.487    
    189800   296.68702     -12199.49      -12199.49      -12133.26       13365.302      14569.536    
    189900   304.25093     -12202.777     -12202.777     -12134.858      2650.7617      14576.815    
    190000   293.81582     -12203.068     -12203.068     -12137.479     -2583.9224      14575.355    
    190100   299.43027     -12204.02      -12204.02      -12137.178      4537.2783      14578.533    
    190200   291.80161     -12201.068     -12201.068     -12135.928     -4530.6419      14582.834    
    190300   299.27356     -12202.024     -12202.024     -12135.216      6917.8984      14586.919    
    190400   299.24128     -12201.708     -12201.708     -12134.908     -967.00205      14582.253    
    190500   294.22743     -12201.411     -12201.411     -12135.73      -10986.193      14592.503    
    190600   296.50454     -12201.585     -12201.585     -12135.396      5278.5408      14562.174    
    190700   307.39867     -12203.375     -12203.375     -12134.754     -6431.6596      14569.523    
    190800   298.63553     -12201.907     -12201.907     -12135.242      1072.1878      14565.909    
    190900   299.71348     -12202.114     -12202.114     -12135.209     -3179.4586      14573.047    
    191000   294.36404     -12201.364     -12201.364     -12135.652     -12354.703      14578.433    
    191100   307.2242      -12202.028     -12202.028     -12133.445     -8171.7445      14577.265    
    191200   307.15788     -12199.488     -12199.488     -12130.921     -6757.2161      14592.731    
    191300   302.21362     -12200.094     -12200.094     -12132.631      6305.1556      14574.933    
    191400   297.83459     -12200.929     -12200.929     -12134.443      8795.5475      14572.015    
    191500   299.29545     -12202.284     -12202.284     -12135.472     -13538.534      14576.002    
    191600   293.88355     -12202.279     -12202.279     -12136.675     -9217.3878      14575.424    
    191700   294.61193     -12203.116     -12203.116     -12137.349      17864.26       14557.846    
    191800   301.28247     -12202.255     -12202.255     -12135         -4388.2153      14566.438    
    191900   303.25316     -12200.518     -12200.518     -12132.823     -18950.155      14580.081    
    192000   301.08345     -12199.95      -12199.95      -12132.738     -2923.1967      14555.458    
    192100   298.76123     -12201.65      -12201.65      -12134.957      1452.5924      14567.899    
    192200   295.87469     -12204.134     -12204.134     -12138.085      5158.1581      14558.786    
    192300   294.58929     -12203.096     -12203.096     -12137.334     -24096.554      14572.068    
    192400   303.65998     -12203.022     -12203.022     -12135.236     -16002.478      14570.086    
    192500   307.41728     -12202.198     -12202.198     -12133.573      1073.2172      14564.128    
    192600   307.32617     -12202.087     -12202.087     -12133.482     -15327.749      14566.546    
    192700   306.70187     -12204.33      -12204.33      -12135.864     -19968.82       14568.34     
    192800   302.77385     -12204.064     -12204.064     -12136.475     -8429.9658      14574.247    
    192900   303.17692     -12203.138     -12203.138     -12135.459     -11849.759      14588.252    
    193000   300.02996     -12201.697     -12201.697     -12134.72       1615.2587      14576.011    
    193100   295.62313     -12200.156     -12200.156     -12134.163      5840.3036      14571.4      
    193200   306.55542     -12201.477     -12201.477     -12133.044      1047.609       14582.732    
    193300   297.43652     -12200.836     -12200.836     -12134.439      910.69866      14582.188    
    193400   294.882       -12202.849     -12202.849     -12137.022      14983.132      14563.58     
    193500   294.90632     -12204.026     -12204.026     -12138.193      16338.002      14558.874    
    193600   290.09939     -12201.901     -12201.901     -12137.141     -11748.432      14577.839    
    193700   300.56407     -12200.474     -12200.474     -12133.379      16064.352      14565.759    
    193800   301.91591     -12201.414     -12201.414     -12134.017      7881.6188      14572.955    
    193900   299.09776     -12202.475     -12202.475     -12135.707     -8390.1432      14581.998    
    194000   294.26848     -12202.491     -12202.491     -12136.801      2710.8764      14573.778    
    194100   305.05197     -12203.678     -12203.678     -12135.581      3662.1107      14584.343    
    194200   292.44824     -12198.373     -12198.373     -12133.089      15056.099      14589.994    
    194300   314.99261     -12202.364     -12202.364     -12132.048      6575.8469      14591.072    
    194400   296.3122      -12201.911     -12201.911     -12135.765      1633.7452      14583.679    
    194500   296.73542     -12202.926     -12202.926     -12136.685      2809.2209      14566.655    
    194600   293.6825      -12201.458     -12201.458     -12135.898     -800.13969      14571.891    
    194700   303.95778     -12202.011     -12202.011     -12134.157      5224.9169      14562.841    
    194800   308.95895     -12201.673     -12201.673     -12132.704      8490.4984      14575.551    
    194900   299.91545     -12199.375     -12199.375     -12132.424      2873.7008      14579.718    
    195000   297.52778     -12201.674     -12201.674     -12135.256      6964.2946      14567.272    
    195100   294.31041     -12202.971     -12202.971     -12137.271     -2716.8239      14569.602    
    195200   294.6863      -12203.422     -12203.422     -12137.639      1820.9905      14557.156    
    195300   292.88235     -12201.148     -12201.148     -12135.768     -9314.4589      14579.76     
    195400   309.52162     -12201.874     -12201.874     -12132.778      10473.643      14578.509    
    195500   301.96562     -12201.062     -12201.062     -12133.654     -8511.1667      14589.516    
    195600   301.63872     -12202.673     -12202.673     -12135.338     -14219.832      14577.508    
    195700   300.34763     -12204.157     -12204.157     -12137.11       4284.0687      14569.766    
    195800   287.24957     -12201.469     -12201.469     -12137.345      4271.7608      14563.156    
    195900   307.39806     -12201.866     -12201.866     -12133.245     -14021.343      14578.99     
    196000   313.42364     -12202.764     -12202.764     -12132.798     -2732.7418      14564.69     
    196100   295.80853     -12200.877     -12200.877     -12134.843     -10224.265      14565.964    
    196200   296.07892     -12202.642     -12202.642     -12136.547     -6845.3377      14576.86     
    196300   292.86075     -12202.542     -12202.542     -12137.166      18475.21       14565.614    
    196400   301.0816      -12203.275     -12203.275     -12136.064     -2453.0439      14554.541    
    196500   295.0875      -12201.535     -12201.535     -12135.662     -220.99049      14564.781    
    196600   297.11299     -12200.864     -12200.864     -12134.539     -8999.8009      14567.067    
    196700   303.5708      -12201.133     -12201.133     -12133.366      4155.022       14573.008    
    196800   307.30809     -12201.796     -12201.796     -12133.195     -5738.8051      14582.488    
    196900   290.25106     -12200.7       -12200.7       -12135.907      9279.8448      14583.03     
    197000   295.69354     -12202.962     -12202.962     -12136.954     -493.5336       14572.191    
    197100   297.95256     -12203.105     -12203.105     -12136.592     -3980.5957      14565.366    
    197200   300.69235     -12201.082     -12201.082     -12133.958      3605.607       14558.138    
    197300   307.17229     -12200.058     -12200.058     -12131.487      10603.437      14566.717    
    197400   304.82093     -12200.276     -12200.276     -12132.23      -7765.0571      14579.64     
    197500   309.2981      -12203.222     -12203.222     -12134.177     -5741.0094      14580.07     
    197600   301.56493     -12202.668     -12202.668     -12135.349     -10302.774      14582.347    
    197700   296.76619     -12202.778     -12202.778     -12136.531      596.30892      14565.977    
    197800   305.95957     -12205.1       -12205.1       -12136.8        4840.2726      14559.148    
    197900   300.66833     -12201.231     -12201.231     -12134.112     -7054.1553      14576.727    
    198000   304.23367     -12199.933     -12199.933     -12132.018      20770.289      14557.67     
    198100   301.7092      -12200.325     -12200.325     -12132.974     -14765.74       14587.167    
    198200   300.27252     -12201.978     -12201.978     -12134.947      1685.2229      14569.361    
    198300   299.82308     -12202.576     -12202.576     -12135.646      1120.7223      14583.597    
    198400   295.26107     -12202.059     -12202.059     -12136.147      11318.758      14558.437    
    198500   295.47974     -12201.758     -12201.758     -12135.797      13103.082      14563.077    
    198600   309.59601     -12202.054     -12202.054     -12132.942      12519.294      14564.621    
    198700   305.64729     -12200.011     -12200.011     -12131.78       10116.06       14573.985    
    198800   303.97922     -12200.818     -12200.818     -12132.96      -15697.052      14579.726    
    198900   291.89373     -12202.195     -12202.195     -12137.035     -14215.955      14585.39     
    199000   295.86662     -12203.247     -12203.247     -12137.2       -3961.2928      14586.972    
    199100   298.07511     -12202.22      -12202.22      -12135.68      -7939.9191      14575.654    
    199200   301.48896     -12200.78      -12200.78      -12133.478      609.67128      14570.038    
    199300   314.86427     -12204.301     -12204.301     -12134.014     -5139.7802      14570.18     
    199400   296.36542     -12202.556     -12202.556     -12136.398     -5624.5416      14575.712    
    199500   295.16997     -12201.892     -12201.892     -12136.001     -3093.5648      14573.985    
    199600   295.53688     -12201.367     -12201.367     -12135.393     -2840.9024      14577.144    
    199700   298.09825     -12200.558     -12200.558     -12134.012      5100.3868      14574.883    
    199800   314.94507     -12201.745     -12201.745     -12131.439      6415.5083      14577.144    
    199900   306.14491     -12199.289     -12199.289     -12130.948     -14208.691      14590.711    
    200000   299.97421     -12201.451     -12201.451     -12134.487     -9491.3156      14592.623    
    200080   294.73417     -12201.878     -12201.878     -12136.084     -14662.313      14582.166    
Loop time of 695.033 on 6 procs for 200000 steps with 1728 atoms

Performance: 6.216 ns/day, 3.861 hours/ns, 287.756 timesteps/s
99.0% CPU use with 6 MPI tasks x 1 OpenMP threads

MPI task timing breakdown:
Section |  min time  |  avg time  |  max time  |%varavg| %total
---------------------------------------------------------------
Pair    | 610.1      | 619.72     | 633.77     |  31.9 | 89.16
Neigh   | 0.013972   | 0.014576   | 0.014965   |   0.3 |  0.00
Comm    | 52.372     | 66.375     | 75.98      |  97.4 |  9.55
Output  | 0.11582    | 0.1281     | 0.15637    |   3.8 |  0.02
Modify  | 6.8444     | 6.9066     | 6.9813     |   2.0 |  0.99
Other   |            | 1.89       |            |       |  0.27

Nlocal:            288 ave         291 max         284 min
Histogram: 1 0 0 0 2 0 0 1 1 1
Nghost:        3169.83 ave        3175 max        3164 min
Histogram: 2 1 0 0 0 0 0 0 0 3
Neighs:              0 ave           0 max           0 min
Histogram: 6 0 0 0 0 0 0 0 0 0
FullNghs:      41056.3 ave       41651 max       40294 min
Histogram: 1 0 1 0 1 0 0 1 0 2

Total # of neighbors = 246338
Ave neighs/atom = 142.55671
Neighbor list builds = 6
Dangerous builds = 0

write_restart checkpoint.init
System init for write_restart ...
write_data NiO_npt_equil.data
System init for write_data ...
Total wall time: 0:11:46
