LAMMPS (29 Sep 2021)
  using 1 OpenMP thread(s) per MPI task
Reading restart file ...
  restart file = 29 Sep 2021, LAMMPS = 29 Sep 2021
  restoring atom style atomic from restart
  orthogonal box = (0.026545862 -0.11240136 0.0000000) to (101.87894 101.51789 530.81251)
  3 by 3 by 16 MPI processor grid
  pair style hybrid/overlay stores no restart info
  449770 atoms
  read_restart CPU = 0.256 seconds
Resetting global fix info from restart file:
  fix style: npt, fix ID: 2

CITE-CITE-CITE-CITE-CITE-CITE-CITE-CITE-CITE-CITE-CITE-CITE-CITE

Your simulation uses code contributions which should be cited:
- @article{cjiang2012
The log file lists these citations in BibTeX format.

CITE-CITE-CITE-CITE-CITE-CITE-CITE-CITE-CITE-CITE-CITE-CITE-CITE

All restart file global fix info was re-assigned
Unused restart file peratom fix info:
  fix style: STORE, fix ID: spatialbins_COMPUTE_STORE
Neighbor list info ...
  update every 1 steps, delay 10 steps, check yes
  max neighbors/atom: 2000, page size: 100000
  master list distance cutoff = 8.28721
  ghost atom cutoff = 8.28721
  binsize = 4.143605, bins = 25 25 129
  3 neighbor lists, perpetual/occasional/extra = 3 0 0
  (1) pair eam/alloy, perpetual, skip from (3)
      attributes: half, newton on
      pair build: skip
      stencil: none
      bin: none
  (2) pair edip/multi, perpetual
      attributes: full, newton on
      pair build: full/bin/atomonly
      stencil: full/bin/3d
      bin: standard
  (3) neighbor class addition, perpetual, half/full from (2)
      attributes: half, newton on
      pair build: halffull/newton
      stencil: none
      bin: none
Setting up Verlet run ...
  Unit style    : metal
  Current step  : 11000314
  Time step     : 0.00025
Per MPI rank memory allocation (min/avg/max) = 6.301 | 8.915 | 10.58 Mbytes
Step Time Temp PotEng E_pair TotEng Press Volume Lx Ly Lz CPULeft 
11000314            0    299.91715   -2165826.6   -2165826.6   -2148390.3   -229.33488    5494593.2    101.85239    101.63029    530.81251            0 
11010000       2.4215    299.60563   -2165841.2   -2165841.2   -2148422.9   -250.73816    5495198.7    101.84492    101.64894    530.81251    57693.608 
11020000       4.9215    299.88684   -2165841.4   -2165841.4   -2148406.8   -291.98639    5494877.9    101.85701    101.63094    530.81251      57176.4 
11030000       7.4215    299.97871   -2165841.1   -2165841.1   -2148401.2   -433.35268    5495641.6     101.8622    101.63989    530.81251    56620.633 
11040000       9.9215    299.45682   -2165844.4   -2165844.4   -2148434.8   -167.23496    5494904.4    101.85267    101.63577    530.81251     56050.34 
11050000      12.4215    300.37551   -2165859.2   -2165859.2   -2148396.2   -120.98174    5495177.3    101.84978     101.6437    530.81251    55477.399 
11060000      14.9215    299.92569   -2165868.5   -2165868.5   -2148431.7    98.785571    5494449.5    101.85099    101.62903    530.81251    54901.068 
11070000      17.4215     299.8953   -2165830.2   -2165830.2   -2148395.2    808.79257    5493900.2    101.84004    101.62979    530.81251    54316.822 
11080000      19.9215    299.77935   -2165846.1   -2165846.1   -2148417.8   -253.80335    5494897.8     101.8566    101.63173    530.81251    53732.284 
11090000      22.4215    300.06594   -2165862.4   -2165862.4   -2148417.4   -383.04526    5494174.4    101.85187    101.62307    530.81251    53149.347 
11100000      24.9215    299.95424   -2165847.9   -2165847.9   -2148409.4    -268.4096    5494865.5    101.85742    101.63031    530.81251    52571.784 
11110000      27.4215    300.05747     -2165859     -2165859   -2148414.5     51.87443    5494760.7    101.84378    101.64198    530.81251    51992.329 
11120000      29.9215    300.27032   -2165862.2   -2165862.2   -2148405.3   -173.83424    5494570.8    101.83617    101.64606    530.81251    51412.855 
11130000      32.4215    300.04147   -2165864.4   -2165864.4   -2148420.9    171.34516    5494894.7    101.85275    101.63551    530.81251    50831.139 
11140000      34.9215    299.51383   -2165837.8   -2165837.8   -2148424.9    170.88194    5494842.9    101.84708    101.64021    530.81251    50248.422 
11150000      37.4215    299.98293   -2165864.8   -2165864.8   -2148424.6   -196.44901    5494693.4    101.85226    101.63228    530.81251    49664.133 
11160000      39.9215    300.23351   -2165872.9   -2165872.9   -2148418.2   -371.98056    5494996.3    101.85337    101.63677    530.81251    49081.651 
11170000      42.4215    300.11432   -2165851.9   -2165851.9   -2148404.1   -102.65353    5494683.1    101.85565     101.6287    530.81251     48499.16 
11180000      44.9215    300.06151   -2165848.2   -2165848.2   -2148403.5    612.30995    5494940.7    101.84557    101.64352    530.81251    47914.841 
11190000      47.4215    299.95282   -2165855.3   -2165855.3   -2148416.9    428.53027    5494605.7    101.84488    101.63802    530.81251    47330.398 
11200000      49.9215    299.91474   -2165863.6   -2165863.6   -2148427.4     152.7238    5494911.3    101.84923    101.63933    530.81251    46743.548 
11210000      52.4215    299.79829   -2165858.4   -2165858.4   -2148428.9    162.94821    5494068.7     101.8419    101.63105    530.81251    46158.542 
11220000      54.9215    299.60136   -2165831.8   -2165831.8   -2148413.8   -2.7970282    5494564.7    101.84973    101.63242    530.81251      45572.3 
11230000      57.4215    299.89688     -2165853     -2165853   -2148417.8   -310.34341    5494546.2    101.84609    101.63571    530.81251    44988.968 
11240000      59.9215     299.9314   -2165865.6   -2165865.6   -2148428.4   -125.78435    5494999.2    101.84973    101.64045    530.81251    44406.893 
11250000      62.4215    300.13023   -2165854.4   -2165854.4   -2148405.7    344.25202    5494904.5    101.85038    101.63806    530.81251    43823.316 
11260000      64.9215    299.71778   -2165862.9   -2165862.9   -2148438.1    151.10157    5495334.3    101.85718    101.63922    530.81251    43239.632 
11270000      67.4215    300.04047   -2165859.2   -2165859.2   -2148415.6   -231.47777    5494493.7    101.84808    101.63275    530.81251    42655.269 
11280000      69.9215    300.27653   -2165853.7   -2165853.7   -2148396.4   -88.346915    5494613.3    101.84903    101.63402    530.81251    42072.167 
11290000      72.4215    300.32904   -2165844.4   -2165844.4   -2148384.1    152.52009    5494615.9    101.84568    101.63741    530.81251    41489.171 
11300000      74.9215    300.19076   -2165870.4   -2165870.4   -2148418.1    63.529595    5494959.3     101.8473    101.64215    530.81251     40905.55 
11310000      77.4215    300.91401   -2165873.9   -2165873.9   -2148379.6    147.79448    5495050.9    101.85222    101.63892    530.81251    40320.756 
11320000      79.9215     300.0664   -2165849.2   -2165849.2   -2148404.2    -724.0883    5495023.6    101.85154    101.63911    530.81251    39733.449 
11330000      82.4215    300.64768   -2165859.7   -2165859.7   -2148380.8   -55.001996    5494742.1    101.84822    101.63721    530.81251    39147.178 
11340000      84.9215    299.86638   -2165848.2   -2165848.2   -2148414.8     278.9917    5494166.2    101.84201    101.63275    530.81251    38563.079 
11350000      87.4215    299.93651     -2165842     -2165842   -2148404.5    74.766024    5495172.1    101.84256    101.65081    530.81251    37979.912 
11360000      89.9215    300.03161   -2165846.1   -2165846.1   -2148403.1   -287.97291    5495012.7    101.85759    101.63286    530.81251    37396.258 
11370000      92.4215    299.80741   -2165823.6   -2165823.6   -2148393.6   -152.67648    5495053.4    101.85182    101.63938    530.81251    36812.058 
11380000      94.9215    299.76449   -2165868.9   -2165868.9   -2148441.4   -101.91628    5494742.8    101.85019    101.63525    530.81251    36226.936 
11390000      97.4215    300.04326   -2165866.4   -2165866.4   -2148422.7   -260.46011    5494413.9    101.83629    101.64305    530.81251    35642.395 
11400000      99.9215    300.07234   -2165855.2   -2165855.2   -2148409.8   -470.66647    5495271.3    101.84877    101.64644    530.81251    35058.267 
11410000     102.4215    300.13885   -2165868.6   -2165868.6   -2148419.3   -65.742589      5494776    101.84521    101.64084    530.81251    34473.759 
11420000     104.9215    300.33708   -2165861.8   -2165861.8   -2148401.1   -326.83038    5494900.4    101.85728     101.6311    530.81251    33890.069 
11430000     107.4215    300.10845   -2165886.4   -2165886.4   -2148438.9   -177.90595      5494037     101.8469    101.62548    530.81251    33305.946 
11440000     109.9215    299.40087   -2165844.8   -2165844.8   -2148438.5    3.1124837    5494487.3    101.84935    101.63136    530.81251    32720.899 
11450000     112.4215    300.01435     -2165864     -2165864   -2148422.1    132.63955    5495189.3    101.84633    101.64736    530.81251    32136.135 
11460000     114.9215    299.90587   -2165851.5   -2165851.5   -2148415.8    -316.5493    5494975.8    101.86005    101.62972    530.81251    31551.835 
11470000     117.4215    299.89906   -2165860.4   -2165860.4   -2148425.1   -525.69231      5494888    101.84991    101.63822    530.81251    30967.365 
11480000     119.9215    300.14237   -2165875.8   -2165875.8   -2148426.4   -368.11565    5494835.4    101.85387    101.63329    530.81251    30382.569 
11490000     122.4215    299.73271   -2165859.8   -2165859.8   -2148434.1   -479.75875    5495018.1    101.85065    101.63989    530.81251    29797.801 
11500000     124.9215    299.59651   -2165844.3   -2165844.3   -2148426.6     302.1461    5494882.6    101.85101    101.63703    530.81251    29213.983 
11510000     127.4215    300.25721   -2165866.3   -2165866.3   -2148410.2    335.91745    5494897.7    101.84593    101.64237    530.81251    28630.084 
11520000     129.9215    299.77927   -2165842.7   -2165842.7   -2148414.4    184.46186    5494318.5    101.84071    101.63686    530.81251    28046.042 
11530000     132.4215      300.308   -2165863.4   -2165863.4   -2148404.3   -110.41136    5494152.2    101.84389    101.63061    530.81251    27462.115 
11540000     134.9215    299.52587   -2165842.8   -2165842.8   -2148429.2   -122.94553    5494278.2    101.84978    101.62707    530.81251    26878.413 
11550000     137.4215    299.86664   -2165827.9   -2165827.9   -2148394.5     78.76642    5494270.6    101.84199     101.6347    530.81251    26294.234 
11560000     139.9215    300.24293   -2165875.9   -2165875.9   -2148420.6    86.103696    5495200.6    101.84866    101.64524    530.81251    25710.236 
11570000     142.4215    299.31796   -2165821.3   -2165821.3   -2148419.7   -72.425733    5494704.7    101.85157    101.63318    530.81251     25126.39 
11580000     144.9215    299.96199   -2165865.5   -2165865.5   -2148426.6    174.71963    5495200.1    101.85364    101.64027    530.81251     24542.72 
11590000     147.4215    300.14257   -2165850.6   -2165850.6   -2148401.1    66.885489    5494580.3    101.84827    101.63416    530.81251    23958.718 
11600000     149.9215    300.16962   -2165859.7   -2165859.7   -2148408.7   -225.55299    5494867.5    101.85601    101.63175    530.81251    23374.671 
11610000     152.4215    300.78704   -2165890.7   -2165890.7   -2148403.8    394.70526    5494785.9    101.85288    101.63337    530.81251    22790.694 
11620000     154.9215    299.58287   -2165835.9   -2165835.9   -2148418.9   -235.70651    5495228.4    101.84762     101.6468    530.81251    22206.764 
11630000     157.4215     300.1849   -2165854.9   -2165854.9     -2148403   -367.99018    5494734.3    101.85231    101.63298    530.81251    21623.034 
11640000     159.9215    300.16511   -2165843.6   -2165843.6   -2148392.8    467.36521    5494643.6    101.85474    101.62888    530.81251    21039.367 
11650000     162.4215    300.14424   -2165865.9   -2165865.9   -2148416.4    -513.5767      5494453    101.84817    101.63191    530.81251    20455.403 
11660000     164.9215    300.28096   -2165859.4   -2165859.4   -2148401.9     -93.6912    5494754.6    101.85213    101.63354    530.81251    19871.439 
11670000     167.4215    299.81035   -2165859.2   -2165859.2     -2148429    277.79453      5494843    101.85808    101.62923    530.81251    19287.535 
11680000     169.9215    300.17564   -2165878.2   -2165878.2   -2148426.8   -192.19578    5494087.7    101.84079    101.63252    530.81251     18703.74 
11690000     172.4215    299.65254   -2165848.5   -2165848.5   -2148427.5   -579.91414    5495428.2    101.85407    101.64406    530.81251    18120.076 
11700000     174.9215    300.19546   -2165875.9   -2165875.9   -2148423.4    198.10425    5494317.1     101.8516    101.62597    530.81251    17536.263 
11710000     177.4215    299.81625   -2165863.8   -2165863.8   -2148433.3    397.09072    5494109.5    101.83663    101.63708    530.81251    16952.577 
11720000     179.9215    299.49011   -2165862.3   -2165862.3   -2148450.8    357.97384    5493582.1    101.83018    101.63375    530.81251    16368.736 
11730000     182.4215     299.7676   -2165856.9   -2165856.9   -2148429.3   -352.09986    5495474.8     101.8568     101.6422    530.81251    15784.939 
11740000     184.9215    300.43888   -2165869.6   -2165869.6   -2148402.9    215.01639    5494879.9    101.85019    101.63779    530.81251    15201.245 
11750000     187.4215    299.94325     -2165862     -2165862   -2148424.1   -170.06054    5495431.8    101.85621    101.64199    530.81251    14617.612 
11760000     189.9215    299.33377   -2165856.1   -2165856.1   -2148453.6   -236.51546    5495313.2    101.85984    101.63617    530.81251    14033.944 
11770000     192.4215    299.90396   -2165856.6   -2165856.6   -2148421.1   -22.361392    5495085.1    101.85878    101.63302    530.81251    13450.241 
11780000     194.9215    300.43168   -2165851.9   -2165851.9   -2148385.7    202.34993    5495132.9    101.85328    101.63939    530.81251    12866.206 
11790000     197.4215     299.9472   -2165849.5   -2165849.5   -2148411.4   -354.42594    5495431.4    101.85868    101.63952    530.81251    12282.347 
11800000     199.9215    300.17442   -2165852.8   -2165852.8   -2148401.5    180.72532    5495009.6    101.85235    101.63803    530.81251    11698.515 
11810000     202.4215    299.79399   -2165867.5   -2165867.5   -2148438.3    371.32178    5494385.2    101.84989    101.62894    530.81251    11114.589 
11820000     204.9215     299.6879     -2165846     -2165846     -2148423    546.03939    5494841.6    101.85832    101.62897    530.81251    10530.679 
11830000     207.4215    299.89393   -2165875.6   -2165875.6   -2148440.6   -537.51767    5494854.6    101.84936    101.63816    530.81251    9946.8995 
11840000     209.9215    300.10837   -2165851.1   -2165851.1   -2148403.6    291.69344      5493994    101.83827     101.6333    530.81251    9362.8202 
11850000     212.4215    300.28823     -2165890     -2165890   -2148432.1    247.25773    5494361.7    101.85124    101.62716    530.81251    8778.7144 
11860000     214.9215    300.31129   -2165877.3   -2165877.3     -2148418    248.79564    5494977.2    101.85237    101.63742    530.81251    8194.6612 
11870000     217.4215      299.755   -2165885.1   -2165885.1   -2148458.2    123.65968    5494796.9     101.8502    101.63625    530.81251    7610.7541 
11880000     219.9215    299.62491   -2165837.3   -2165837.3     -2148418   -106.62312    5495499.4    101.85372    101.64572    530.81251    7026.8455 
11890000     222.4215    299.02717   -2165825.5   -2165825.5   -2148440.8   -70.294128    5495025.7    101.84871    101.64196    530.81251    6442.8005 
11900000     224.9215    299.95051   -2165862.1   -2165862.1   -2148423.8    110.83359    5494703.1    101.85059    101.63412    530.81251    5858.8219 
11910000     227.4215    299.77049   -2165853.2   -2165853.2   -2148425.4   -104.83769      5494818    101.85714     101.6297    530.81251     5274.831 
11920000     229.9215     299.9523   -2165873.8   -2165873.8   -2148435.4   -111.17657    5495002.6    101.84854     101.6417    530.81251    4690.8209 
11930000     232.4215    300.18558   -2165877.3   -2165877.3   -2148425.4   -314.19604    5495581.4     101.8567    101.64426    530.81251    4106.7688 
11940000     234.9215    299.96813   -2165853.2   -2165853.2   -2148413.8    206.02549      5494972    101.84895    101.64073    530.81251    3522.7293 
11950000     237.4215    299.82157   -2165868.1   -2165868.1   -2148437.3    248.33273    5494983.9    101.85188    101.63803    530.81251    2938.6887 
11960000     239.9215    300.72259   -2165880.6   -2165880.6   -2148397.4    112.19837    5494972.9    101.85586    101.63385    530.81251     2354.639 
11970000     242.4215    299.77772   -2165853.2   -2165853.2   -2148424.9    122.12108    5495024.2    101.85263    101.63803    530.81251    1770.5728 
11980000     244.9215    299.99109   -2165850.9   -2165850.9   -2148410.2    66.288906    5494801.7    101.84987    101.63666    530.81251    1186.5028 
11990000     247.4215    300.13774   -2165856.2   -2165856.2     -2148407   -320.23266    5495195.2    101.84807    101.64574    530.81251    602.42101 
12000000     249.9215    300.00349   -2165868.6   -2165868.6   -2148427.2   -357.32401    5494675.5    101.85489    101.62932    530.81251    18.340163 
12000314          250    300.03062   -2165844.8   -2165844.8   -2148401.8    223.40497    5494044.8     101.8441    101.62842    530.81251            0 
Loop time of 58408.2 on 144 procs for 1000000 steps with 449770 atoms

Performance: 0.370 ns/day, 64.898 hours/ns, 17.121 timesteps/s
100.0% CPU use with 144 MPI tasks x 1 OpenMP threads

MPI task timing breakdown:
Section |  min time  |  avg time  |  max time  |%varavg| %total
---------------------------------------------------------------
Pair    | 9799.8     | 16564      | 57348      |8222.7 | 28.36
Neigh   | 20.907     | 38.223     | 74.087     | 190.7 |  0.07
Comm    | 408.39     | 6916.8     | 48039      |15089.9 | 11.84
Output  | 1.9302     | 1.9323     | 1.9605     |   0.2 |  0.00
Modify  | 427.62     | 34823      | 44342      |8888.2 | 59.62
Other   |            | 63.83      |            |       |  0.11

Nlocal:        3123.40 ave        5041 max        2094 min
Histogram: 11 33 14 23 46 8 0 0 0 9
Nghost:        7293.33 ave       10567 max        4677 min
Histogram: 9 3 14 40 19 35 15 0 1 8
Neighs:         0.00000 ave           0 max           0 min
Histogram: 144 0 0 0 0 0 0 0 0 0
FullNghs:      571964.0 ave      796202 max      197948 min
Histogram: 9 0 12 22 2 10 23 9 30 27

Total # of neighbors = 82362760
Ave neighs/atom = 183.12195
Neighbor list builds = 2381
Dangerous builds = 0
System init for write_restart ...
System init for write_data ...
Total wall time: 16:13:29
