LAMMPS (29 Sep 2021)
  using 1 OpenMP thread(s) per MPI task
Reading restart file ...
  restart file = 29 Sep 2021, LAMMPS = 29 Sep 2021
  restoring atom style atomic from restart
  orthogonal box = (-0.42173369 -0.37970739 0.0000000) to (101.49440 101.45238 588.55000)
  3 by 2 by 16 MPI processor grid
  pair style hybrid/overlay stores no restart info
  431844 atoms
  read_restart CPU = 0.186 seconds
Resetting global fix info from restart file:
  fix style: npt, fix ID: 2

CITE-CITE-CITE-CITE-CITE-CITE-CITE-CITE-CITE-CITE-CITE-CITE-CITE

Your simulation uses code contributions which should be cited:
- @article{cjiang2012
The log file lists these citations in BibTeX format.

CITE-CITE-CITE-CITE-CITE-CITE-CITE-CITE-CITE-CITE-CITE-CITE-CITE

All restart file global fix info was re-assigned
Unused restart file peratom fix info:
  fix style: STORE, fix ID: spatialbins_COMPUTE_STORE
Neighbor list info ...
  update every 1 steps, delay 10 steps, check yes
  max neighbors/atom: 2000, page size: 100000
  master list distance cutoff = 8.28721
  ghost atom cutoff = 8.28721
  binsize = 4.143605, bins = 25 25 143
  3 neighbor lists, perpetual/occasional/extra = 3 0 0
  (1) pair eam/alloy, perpetual, skip from (3)
      attributes: half, newton on
      pair build: skip
      stencil: none
      bin: none
  (2) pair edip/multi, perpetual
      attributes: full, newton on
      pair build: full/bin/atomonly
      stencil: full/bin/3d
      bin: standard
  (3) neighbor class addition, perpetual, half/full from (2)
      attributes: half, newton on
      pair build: halffull/newton
      stencil: none
      bin: none
Setting up Verlet run ...
  Unit style    : metal
  Current step  : 11000114
  Time step     : 0.0001
Per MPI rank memory allocation (min/avg/max) = 5.084 | 11.73 | 17.23 Mbytes
Step Time Temp PotEng E_pair TotEng Press Volume Lx Ly Lz CPULeft 
11000114            0    299.96886   -1831421.3   -1831421.3     -1814677   -165.49943    6108167.6    101.91614    101.83208       588.55            0 
11010000       0.9886    299.81811     -1831378     -1831378   -1814642.1     71.49711    6107924.2    101.90483    101.83932       588.55    27731.938 
11020000       1.9886    300.06429   -1831368.9   -1831368.9   -1814619.3    143.69365      6107332    101.90663    101.82766       588.55    27495.405 
11030000       2.9886    299.91683   -1831418.3   -1831418.3   -1814676.9   -63.037737    6108019.4    101.91626    101.82948       588.55    27231.599 
11040000       3.9886    300.19495   -1831405.3   -1831405.3   -1814648.4   -389.11124    6108654.4    101.91425    101.84208       588.55    26963.604 
11050000       4.9886    300.17275   -1831424.7   -1831424.7     -1814669    26.010473    6108427.1    101.91774    101.83481       588.55    26688.302 
11060000       5.9886    300.17295   -1831408.4   -1831408.4   -1814652.7     99.60821    6108371.3    101.91259    101.83903       588.55    26404.995 
11070000       6.9886    299.85305   -1831392.7   -1831392.7   -1814654.8   -50.821588      6108187    101.91676    101.83178       588.55    26123.497 
11080000       7.9886     300.0197   -1831434.2   -1831434.2   -1814687.1   -363.31733    6108714.9    101.91508    101.84227       588.55    25841.759 
11090000       8.9886    299.85016   -1831405.1   -1831405.1   -1814667.4    263.44339    6108323.9     101.9121    101.83872       588.55    25559.592 
11100000       9.9886    300.04505   -1831397.3   -1831397.3   -1814648.8    -191.1993      6108280    101.92299    101.82711       588.55     25275.42 
11110000      10.9886    299.89276   -1831405.2   -1831405.2   -1814665.1    120.66611    6108651.2    101.91939    101.83689       588.55    24993.279 
11120000      11.9886    299.81668   -1831433.6   -1831433.6   -1814697.8    217.97993    6108192.2    101.91465    101.83398       588.55    24710.078 
11130000      12.9886    300.01082   -1831406.3   -1831406.3   -1814659.6    321.61727    6108983.6    101.91774    101.84408       588.55    24432.075 
11140000      13.9886    299.77844   -1831403.6   -1831403.6     -1814670   -160.99059    6109887.9    101.92299    101.85391       588.55    24153.955 
11150000      14.9886    299.72712     -1831420     -1831420   -1814689.2   -54.574258    6108975.5    101.92442    101.83727       588.55    23873.815 
11160000      15.9886       300.12   -1831403.7   -1831403.7   -1814650.9    -283.6631    6108907.9    101.92454    101.83603       588.55    23588.961 
11170000      16.9886    299.82716   -1831382.8   -1831382.8   -1814646.4   -121.67735    6109202.1    101.92579    101.83968       588.55     23305.64 
11180000      17.9886    299.80097   -1831436.8   -1831436.8   -1814701.9   -318.69357    6109657.6    101.92732    101.84575       588.55    23024.674 
11190000      18.9886    299.93962   -1831396.8   -1831396.8   -1814654.1   -108.84305    6109829.9    101.92358    101.85236       588.55    22742.786 
11200000      19.9886    299.82671   -1831407.3   -1831407.3     -1814671     187.6469    6109298.6    101.92843    101.83865       588.55    22462.604 
11210000      20.9886    299.98491   -1831417.7   -1831417.7   -1814672.5    58.686102    6109636.4    101.93061     101.8421       588.55    22180.524 
11220000      21.9886    300.00809   -1831384.6   -1831384.6   -1814638.1   -148.21336    6109343.9     101.9289    101.83894       588.55     21898.59 
11230000      22.9886    300.20715   -1831395.4   -1831395.4   -1814637.8   -122.44455    6108858.2    101.91577    101.84396       588.55    21618.646 
11240000      23.9886    299.82773   -1831392.9   -1831392.9   -1814656.5    236.38359    6108601.3    101.92084    101.83462       588.55    21338.399 
11250000      24.9886    299.74435     -1831420     -1831420   -1814688.2   -188.73623      6109398    101.92536    101.84338       588.55    21057.438 
11260000      25.9886    299.74569     -1831409     -1831409   -1814677.1   -127.16692    6108793.3    101.92779    101.83087       588.55      20776.7 
11270000      26.9886     300.0884   -1831401.5   -1831401.5   -1814650.5    86.424086    6109044.9    101.92064    101.84221       588.55    20496.379 
11280000      27.9886    299.87525   -1831410.1   -1831410.1     -1814671     260.1159    6108648.8    101.92204    101.83421       588.55    20215.925 
11290000      28.9886    300.25276   -1831385.6   -1831385.6   -1814625.5   -22.460957    6108606.8    101.91926    101.83628       588.55    19935.054 
11300000      29.9886    300.20023   -1831406.2   -1831406.2     -1814649    38.849229    6107877.3    101.90717    101.83621       588.55    19654.283 
11310000      30.9886    300.34335   -1831404.9   -1831404.9   -1814639.7   -112.43201    6108938.3    101.91583    101.84524       588.55    19374.512 
11320000      31.9886    299.83535     -1831384     -1831384   -1814647.2    375.81419    6108738.6    101.91533    101.84241       588.55    19094.422 
11330000      32.9886    300.21281   -1831413.1   -1831413.1   -1814655.2    167.36067    6108524.3     101.9135    101.84067       588.55    18814.412 
11340000      33.9886    300.21915   -1831397.7   -1831397.7   -1814639.5   -52.853634    6108694.9     101.9162    101.84081       588.55    18533.913 
11350000      34.9886    300.17869   -1831389.2   -1831389.2   -1814633.2   -91.234464    6107998.4    101.91065    101.83475       588.55    18253.064 
11360000      35.9886    300.37685   -1831418.6   -1831418.6   -1814651.5   -121.46467    6108467.8    101.91651    101.83672       588.55     17972.35 
11370000      36.9886    299.90282   -1831412.2   -1831412.2   -1814671.6    225.18324    6108224.9     101.9207    101.82848       588.55    17691.555 
11380000      37.9886    299.84879   -1831414.4   -1831414.4   -1814676.8  -0.97324705      6109185    101.92379    101.84139       588.55    17410.383 
11390000      38.9886    300.01684   -1831370.4   -1831370.4   -1814623.4   -138.84476    6109012.7    101.91567    101.84664       588.55    17129.507 
11400000      39.9886    299.90467   -1831392.7   -1831392.7     -1814652   -165.45606    6109611.3    101.92118    101.85111       588.55    16849.458 
11410000      40.9886    299.67434   -1831409.2   -1831409.2   -1814681.4    99.164349    6109241.8    101.92563    101.84051       588.55     16569.28 
11420000      41.9886    299.89564   -1831368.8   -1831368.8   -1814628.6    111.17819    6109315.5    101.92332    101.84404       588.55    16288.457 
11430000      42.9886    299.90291   -1831418.2   -1831418.2   -1814677.6    76.745655    6108339.3    101.91402    101.83706       588.55    16007.395 
11440000      43.9886    299.95832   -1831402.1   -1831402.1   -1814658.4   -389.19236    6108885.8    101.92508    101.83512       588.55    15726.896 
11450000      44.9886    300.08539   -1831424.6   -1831424.6   -1814673.8   -37.444522      6109176    101.92145    101.84358       588.55    15445.995 
11460000      45.9886    300.10647   -1831391.6   -1831391.6   -1814639.6    351.64768    6109138.7    101.92185    101.84257       588.55    15165.681 
11470000      46.9886    300.10279   -1831420.3   -1831420.3   -1814668.6    86.671933    6108931.1    101.91756    101.84339       588.55    14884.938 
11480000      47.9886    299.85545   -1831405.3   -1831405.3   -1814667.4    91.165559    6109514.8    101.92988    101.84081       588.55    14603.778 
11490000      48.9886    300.13232   -1831381.6   -1831381.6   -1814628.2   -122.66017    6109747.3     101.9218    101.85276       588.55    14322.733 
11500000      49.9886    299.73183   -1831424.4   -1831424.4   -1814693.4    126.30258    6108955.1    101.92645    101.83491       588.55    14042.183 
11510000      50.9886    300.11996   -1831380.3   -1831380.3   -1814627.6   -97.634232      6108281    101.91476    101.83535       588.55    13761.316 
11520000      51.9886    299.73679   -1831432.8   -1831432.8   -1814701.5    151.76565    6108127.2    101.92007    101.82748       588.55    13480.609 
11530000      52.9886    300.02922   -1831401.8   -1831401.8   -1814654.1    128.82464    6108864.7    101.91865     101.8412       588.55    13199.616 
11540000      53.9886    300.28204   -1831362.3   -1831362.3   -1814600.5    -72.50236    6108693.9    101.91202    101.84497       588.55    12918.771 
11550000      54.9886     299.9044   -1831407.4   -1831407.4   -1814666.7     92.45558      6109514    101.92873    101.84195       588.55    12637.903 
11560000      55.9886    300.04293   -1831398.6   -1831398.6   -1814650.2   -114.67053    6108967.6    101.92782    101.83374       588.55     12357.13 
11570000      56.9886    299.96325   -1831408.1   -1831408.1   -1814664.1    159.15921    6108023.3    101.91411     101.8317       588.55    12076.642 
11580000      57.9886    299.89474   -1831452.7   -1831452.7   -1814712.6   -321.70508    6109097.7    101.92736    101.83637       588.55    11795.903 
11590000      58.9886    299.96522   -1831408.2   -1831408.2   -1814664.2   -74.469961      6108825     101.9298    101.82939       588.55    11515.325 
11600000      59.9886    299.91094   -1831392.1   -1831392.1   -1814651.1   -2.1319367    6109131.6    101.92508    101.83922       588.55    11234.904 
11610000      60.9886    300.30142   -1831426.1   -1831426.1   -1814663.3   -201.21624    6107633.4    101.91342    101.82589       588.55    10954.198 
11620000      61.9886    299.87477   -1831417.5   -1831417.5   -1814678.5    160.76554    6108932.7    101.91769    101.84329       588.55    10673.444 
11630000      62.9886    300.18658   -1831407.8   -1831407.8   -1814651.4   0.62774391    6108750.8    101.91249    101.84545       588.55    10392.806 
11640000      63.9886    300.12781   -1831366.6   -1831366.6   -1814613.4   -16.364361    6108653.7    101.91962     101.8367       588.55    10112.083 
11650000      64.9886    299.77343   -1831423.6   -1831423.6   -1814690.2    48.202909    6108259.6    101.90991    101.83984       588.55    9831.2879 
11660000      65.9886    299.94176     -1831380     -1831380   -1814637.2    -125.3241      6108928    101.92736    101.83355       588.55    9550.4339 
11670000      66.9886    300.04179   -1831397.1   -1831397.1   -1814648.8   -114.28264    6108873.6    101.91898    101.84102       588.55    9269.3297 
11680000      67.9886    300.38511     -1831431     -1831431   -1814663.5    -38.20166    6108650.1    101.92123    101.83504       588.55    8988.3473 
11690000      68.9886    299.99089   -1831381.2   -1831381.2   -1814635.7   -157.04193    6109355.8    101.91938    101.84865       588.55    8707.4719 
11700000      69.9886    300.16589   -1831405.7   -1831405.7   -1814650.4    -30.76277    6109818.4    101.93494    101.84081       588.55    8426.6312 
11710000      70.9886    300.04794   -1831382.5   -1831382.5   -1814633.8   -25.590682    6109251.1    101.92753    101.83876       588.55    8145.7502 
11720000      71.9886    299.78407   -1831412.6   -1831412.6   -1814678.7    132.38927      6108378    101.91319    101.83853       588.55    7865.1392 
11730000      72.9886    300.36249   -1831410.6   -1831410.6   -1814644.3   -205.58595    6108870.3     101.9181    101.84184       588.55     7584.327 
11740000      73.9886    300.11279   -1831412.9   -1831412.9   -1814660.6    98.889745    6108723.6     101.9159    101.84159       588.55    7303.7699 
11750000      74.9886    299.80652   -1831402.2   -1831402.2     -1814667   -380.91967      6109123    101.92976     101.8344       588.55    7022.9785 
11760000      75.9886    300.29171   -1831408.6   -1831408.6   -1814646.3    238.00691    6108300.5    101.91823     101.8322       588.55    6742.1328 
11770000      76.9886    300.14771   -1831403.6   -1831403.6   -1814649.4    260.42656    6107818.5    101.91584    101.82656       588.55    6461.2472 
11780000      77.9886    300.01082     -1831414     -1831414   -1814667.4   -78.766433    6109884.2    101.92563    101.85122       588.55    6180.3865 
11790000      78.9886    299.98054   -1831396.9   -1831396.9     -1814652    118.71954      6109034    101.92274    101.83993       588.55    5899.5307 
11800000      79.9886    299.97394   -1831389.1   -1831389.1   -1814644.5    176.19551    6108560.4     101.9123    101.84246       588.55    5618.6608 
11810000      80.9886    299.97024   -1831401.9   -1831401.9   -1814657.5     189.1928    6108697.2    101.91952    101.83753       588.55    5337.8726 
11820000      81.9886    299.91359     -1831378     -1831378   -1814636.8    6.7617458    6109166.7    101.92523    101.83965       588.55    5057.0604 
11830000      82.9886    300.20675   -1831425.6   -1831425.6   -1814668.1   -195.33414    6109015.8    101.92124    101.84113       588.55    4776.3678 
11840000      83.9886    299.78941   -1831423.7   -1831423.7   -1814689.4    147.62176    6109548.3    101.92974     101.8415       588.55    4495.5951 
11850000      84.9886    300.06744   -1831393.8   -1831393.8     -1814644    192.93559    6108770.8    101.92063    101.83765       588.55    4214.8064 
11860000      85.9886    300.14789   -1831398.1   -1831398.1   -1814643.9    128.64626    6107995.5    101.91449    101.83086       588.55    3933.9927 
11870000      86.9886    299.72475   -1831441.4   -1831441.4   -1814710.7   -313.77507    6109729.3    101.92435    101.84991       588.55    3653.1503 
11880000      87.9886    299.91323   -1831405.6   -1831405.6   -1814664.4    28.941844    6108096.8    101.91107    101.83597       588.55      3372.32 
11890000      88.9886    299.93821   -1831415.8   -1831415.8   -1814673.3   -80.631322    6109200.4    101.92388    101.84157       588.55    3091.5811 
11900000      89.9886    299.97061   -1831380.6   -1831380.6   -1814636.2     182.6134    6108697.2    101.92274    101.83431       588.55    2810.8219 
11910000      90.9886    300.13841   -1831408.7   -1831408.7   -1814654.9    190.59533    6108956.9    101.91563    101.84574       588.55    2530.0744 
11920000      91.9886      300.077     -1831383     -1831383   -1814632.7   -288.47881    6109595.7    101.92804    101.84399       588.55    2249.3229 
11930000      92.9886    300.19454   -1831409.2   -1831409.2   -1814652.3    7.2827024    6108816.8    101.91705      101.842       588.55     1968.555 
11940000      93.9886    299.82095   -1831399.8   -1831399.8   -1814663.8   -93.384426      6109587    101.92639     101.8455       588.55    1687.7967 
11950000      94.9886    299.98832   -1831379.4   -1831379.4   -1814634.1    170.19163    6108350.8    101.92207    101.82921       588.55    1407.0161 
11960000      95.9886     300.2214     -1831405     -1831405   -1814646.6    44.823375    6108154.7    101.90249     101.8455       588.55    1126.2514 
11970000      96.9886    300.18188   -1831426.8   -1831426.8   -1814670.6    140.38723    6108040.5    101.92075    101.82536       588.55    845.49107 
11980000      97.9886     299.8276   -1831412.9   -1831412.9   -1814676.5   -7.4547538    6108786.5    101.92121    101.83733       588.55    564.72554 
11990000      98.9886    300.08174   -1831406.8   -1831406.8   -1814656.3    111.26612    6107743.1    101.91677    101.82438       588.55    283.96437 
12000000      99.9886    300.24609     -1831403     -1831403   -1814643.2   -10.330764    6108394.6    101.91845    101.83356       588.55    3.2007243 
12000114          100    300.13553   -1831401.2   -1831401.2   -1814647.6   -203.54116    6109867.4    101.92951    101.84706       588.55            0 
Loop time of 28076.5 on 96 procs for 1000000 steps with 431844 atoms

Performance: 0.308 ns/day, 77.990 hours/ns, 35.617 timesteps/s
100.0% CPU use with 96 MPI tasks x 1 OpenMP threads

MPI task timing breakdown:
Section |  min time  |  avg time  |  max time  |%varavg| %total
---------------------------------------------------------------
Pair    | 4809.5     | 18648      | 27123      |4311.0 | 66.42
Neigh   | 0.046774   | 24.016     | 33.79      | 205.9 |  0.09
Comm    | 386.49     | 5864.7     | 22382      |9011.0 | 20.89
Output  | 1.8453     | 1.8466     | 1.8498     |   0.1 |  0.01
Modify  | 474.85     | 3461.1     | 6014.4     |3694.4 | 12.33
Other   |            | 76.63      |            |       |  0.27

Nlocal:        4498.38 ave        5845 max           4 min
Histogram: 12 0 0 0 0 0 0 23 17 44
Nghost:        8272.53 ave       10908 max        2384 min
Histogram: 12 0 0 0 0 12 3 33 13 23
Neighs:         0.00000 ave           0 max           0 min
Histogram: 96 0 0 0 0 0 0 0 0 0
FullNghs:      860965.0 ave 1.24504e+06 max         124 min
Histogram: 12 0 0 0 0 12 15 18 15 24

Total # of neighbors = 82652668
Ave neighs/atom = 191.39474
Neighbor list builds = 1043
Dangerous builds = 0
System init for write_restart ...
System init for write_data ...
Total wall time: 7:47:57
