LAMMPS (24 Mar 2022)
OMP_NUM_THREADS environment is not set. Defaulting to 1 thread. (src/comm.cpp:98)
  using 1 OpenMP thread(s) per MPI task
package gpu 0
# Impact of NiAl nanolaminate, 4 km/s.

# simulation construction

units      metal
dimension  3
boundary   p p p
atom_style atomic

region       left    block         0.0  257.0    0.0 200 0.0 200
region      right    block             257.0  516  0.0 200 0.0 200



thermo 1

# Read pre-thermalised data, reset timestep
read_restart bilayer-nial09-thermalised.init
Reading restart file ...
  restart file = 24 Mar 2022, LAMMPS = 24 Mar 2022
  restoring atom style atomic from restart
  orthogonal box = (1.0227931 0.19898699 0.19898699) to (512.97721 99.801013 99.801013)
  6 by 1 by 1 MPI processor grid
  pair style eam/alloy/gpu stores no restart info
  397994 atoms
  read_restart CPU = 0.056 seconds
timestep   0.001
reset_timestep 0

# Set potentials
pair_style eam/alloy
pair_coeff * * Mishin-Ni-Al-2009.eam.alloy Ni Al


# Thermodynamic acquire settings
thermo_style custom step time temp press pe ke etotal vol
thermo 100
dump    atomdump all atom 100 run.lammpstrj

compute spatialbins all chunk/atom bin/1d x lower 0.01 ids every compress no units reduced
compute bintemps    all temp/chunk spatialbins temp com yes
compute ke all ke
compute temp all temp

fix     temp_bias          all ave/chunk 1 10 10 spatialbins temp bias bintemps file temp.bias.dat
fix     velocity_x         all ave/chunk 1 10 10 spatialbins vx file vx.dat
fix     velocity_x_highres all ave/chunk 1  1  1 spatialbins vx file hrvx.dat
fix     kinetic_energy     all ave/time 1 1 1 c_ke file ke.dat
fix     temp               all ave/time 1 1 1 c_temp file temp.dat
# Set microcanonical ensemble
fix     microcanonical     all nve

# Thump dynamics
group          g_left      region left
199389 atoms in group g_left
group         g_right      region right
198605 atoms in group g_right
velocity       g_left      set  20 NULL NULL units box sum yes
velocity      g_right      set -20 NULL NULL units box sum yes
fix      box_contract      all deform 1 x vel -40 remap v units box
run  3798

CITE-CITE-CITE-CITE-CITE-CITE-CITE-CITE-CITE-CITE-CITE-CITE-CITE

Your simulation uses code contributions which should be cited:

- GPU package (short-range, long-range and three-body potentials):

@Article{Brown11,
 author = {W. M. Brown, P. Wang, S. J. Plimpton, A. N. Tharrington},
 title = {Implementing Molecular Dynamics on Hybrid High Performance Computers - Short Range Forces},
 journal = {Comp.~Phys.~Comm.},
 year =    2011,
 volume =  182,
 pages =   {898--911}
}

@Article{Brown12,
 author = {W. M. Brown, A. Kohlmeyer, S. J. Plimpton, A. N. Tharrington},
 title = {Implementing Molecular Dynamics on Hybrid High Performance Computers - Particle-Particle Particle-Mesh},
 journal = {Comp.~Phys.~Comm.},
 year =    2012,
 volume =  183,
 pages =   {449--459}
}

@Article{Brown13,
 author = {W. M. Brown, Y. Masako},
 title = {Implementing Molecular Dynamics on Hybrid High Performance Computers – Three-Body Potentials},
 journal = {Comp.~Phys.~Comm.},
 year =    2013,
 volume =  184,
 pages =   {2785--2793}
}

@Article{Trung15,
 author = {T. D. Nguyen, S. J. Plimpton},
 title = {Accelerating dissipative particle dynamics simulations for soft matter systems},
 journal = {Comput.~Mater.~Sci.},
 year =    2015,
 volume =  100,
 pages =   {173--180}
}

@Article{Trung17,
 author = {T. D. Nguyen},
 title = {GPU-accelerated Tersoff potentials for massively parallel Molecular Dynamics simulations},
 journal = {Comp.~Phys.~Comm.},
 year =    2017,
 volume =  212,
 pages =   {113--122}
}

@Article{Nikolskiy19,
 author = {V. Nikolskiy, V. Stegailov},
 title = {GPU acceleration of four-site water models in LAMMPS},
 journal = {Proceeding of the International Conference on Parallel Computing (ParCo 2019), Prague, Czech Republic},
 year =    2019
}

CITE-CITE-CITE-CITE-CITE-CITE-CITE-CITE-CITE-CITE-CITE-CITE-CITE

Unused restart file global fix info:
  fix style: npt/gpu, fix ID: 1
Per MPI rank memory allocation (min/avg/max) = 25.26 | 27.14 | 28.22 Mbytes
   Step          Time           Temp          Press          PotEng         KinEng         TotEng         Volume    
         0   0              8126.939       84716.065     -1653459.2      418087.4      -1235371.8      5078876.3    
       100   0.1            8117.0495      85896.118     -1653428.6      417578.63     -1235849.9      5039194.1    
       200   0.2            8107.5193      86934.685     -1653417.5      417088.36     -1236329.1      4999511.8    
       300   0.3            8099.2503      87858.47      -1653434.9      416662.96     -1236771.9      4959829.6    
       400   0.4            8108.9495      88674.666     -1654241.1      417161.93     -1237079.2      4920147.3    
       500   0.5            8005.6272      97596.458     -1649194.5      411846.55     -1237348        4880465      
       600   0.6            7848.7155      109709.59     -1641251.4      403774.29     -1237477.1      4840782.8    
       700   0.7            7649.3999      121834.36     -1631028        393520.57     -1237507.5      4801100.5    
       800   0.8            7455.3345      135305.05     -1620963        383536.95     -1237426.1      4761418.3    
       900   0.9            7220.2901      151492.96     -1608663.5      371445.17     -1237218.3      4721736      
      1000   1              6967.8265      169851.21     -1595290.2      358457.28     -1236832.9      4682053.8    
      1100   1.1            6711.1387      189330.66     -1581671.4      345252.07     -1236419.3      4642371.5    
      1200   1.2            6454.4488      209886.81     -1568108.9      332046.75     -1236062.1      4602689.3    
      1300   1.3            6201.6079      231342.48     -1554704.9      319039.44     -1235665.4      4563007      
      1400   1.4            6006.4288      247916.01     -1544343.5      308998.52     -1235345        4523324.8    
      1500   1.5            5834.0787      265086.87     -1535255.4      300132.04     -1235123.3      4483642.5    
      1600   1.6            5699.6503      281200.94     -1528181.8      293216.42     -1234965.4      4443960.2    
      1700   1.7            5553.532       298450.41     -1520556.2      285699.42     -1234856.8      4404278      
      1800   1.8            5411.8308      314003.51     -1513176.6      278409.65     -1234766.9      4364595.7    
      1900   1.9            5300.8794      326964.85     -1507378.1      272701.79     -1234676.3      4324913.5    
      2000   2              5165.3242      341300.68     -1500310.3      265728.21     -1234582.1      4285231.2    
      2100   2.1            4982.221       359734.44     -1490748.5      256308.53     -1234440        4245549      
      2200   2.2            4753.6282      379987.29     -1478664.9      244548.66     -1234116.3      4205866.7    
      2300   2.3            4488.4647      403068.89     -1464583.2      230907.42     -1233675.8      4166184.5    
      2400   2.4            4221.475       426679.17     -1450317        217172.23     -1233144.7      4126502.2    
      2500   2.5            3986.8332      448003.69     -1437479        205101.17     -1232377.9      4086820      
      2600   2.6            3763.2834      469803.07     -1425068        193600.73     -1231467.3      4047137.7    
      2700   2.7            3570.1278      494378.69     -1414220.1      183663.91     -1230556.2      4007455.4    
      2800   2.8            3422.6557      519051.85     -1405875        176077.27     -1229797.8      3967773.2    
      2900   2.9            3281.7649      540203.55     -1398061.4      168829.19     -1229232.2      3928090.9    
      3000   3              3149.5361      560239.5      -1390841.4      162026.73     -1228814.6      3888408.7    
      3100   3.1            3030.176       579424.88     -1384458        155886.29     -1228571.7      3848726.4    
      3200   3.2            2891.0236      600958.92     -1377097.8      148727.65     -1228370.2      3809044.2    
      3300   3.3            2708.1529      623278.95     -1367501.2      139319.93     -1228181.2      3769361.9    
      3400   3.4            2477.7822      648237.63     -1355430.6      127468.6      -1227962        3729679.7    
      3500   3.5            2230.0988      671326.74     -1342355.5      114726.62     -1227628.9      3689997.4    
      3600   3.6            2055.1266      700087.56     -1325615.1      105725.24     -1219889.9      3650315.2    
      3700   3.7            2003.3195      732391.73     -1309416.8      103060.04     -1206356.7      3610632.9    
      3798   3.798          1972.6603      767076.36     -1293311.2      101482.78     -1191828.4      3571744.3    
Loop time of 142.274 on 6 procs for 3798 steps with 397994 atoms

Performance: 2.306 ns/day, 10.406 hours/ns, 26.695 timesteps/s
99.7% CPU use with 6 MPI tasks x 1 OpenMP threads

MPI task timing breakdown:
Section |  min time  |  avg time  |  max time  |%varavg| %total
---------------------------------------------------------------
Pair    | 90.854     | 97.846     | 104.28     |  47.4 | 68.77
Neigh   | 0.13412    | 0.16081    | 0.18452    |   5.1 |  0.11
Comm    | 5.3925     | 6.1626     | 7.826      |  33.6 |  4.33
Output  | 2.2266     | 2.2267     | 2.2271     |   0.0 |  1.57
Modify  | 26.453     | 32.593     | 38.476     |  74.4 | 22.91
Other   |            | 3.285      |            |       |  2.31

Nlocal:        66332.3 ave       69009 max       62117 min
Histogram: 2 0 0 0 0 0 0 0 2 2
Nghost:        46361.8 ave       48683 max       42700 min
Histogram: 2 0 0 0 0 0 0 0 2 2
Neighs:              0 ave           0 max           0 min
Histogram: 6 0 0 0 0 0 0 0 0 0

Total # of neighbors = -6
Ave neighs/atom = -1.5075604e-05
Neighbor list builds = 209
Dangerous builds = 0
unfix box_contract
run 96202
Per MPI rank memory allocation (min/avg/max) = 28.65 | 30.72 | 31.89 Mbytes
   Step          Time           Temp          Press          PotEng         KinEng         TotEng         Volume    
      3798   3.798          1972.6603      767227.26     -1293196.4      101482.78     -1191713.6      3571744.3    
      3800   3.8            1969.9963      767356.96     -1293059.1      101345.74     -1191713.4      3571744.3    
      3900   3.9            1862.0013      780002.02     -1287503.4      95789.975     -1191713.4      3571744.3    
      4000   4              1771.8588      783331.69     -1282866.3      91152.623     -1191713.6      3571744.3    
      4100   4.1            1727.5936      784563.3      -1280589.2      88875.418     -1191713.8      3571744.3    
      4200   4.2            1722.6461      787436.63     -1280334.9      88620.895     -1191714        3571744.3    
      4300   4.3            1779.2326      785481.15     -1283246.1      91531.966     -1191714.2      3571744.3    
      4400   4.4            1865.4269      775495.74     -1287680.7      95966.203     -1191714.5      3571744.3    
      4500   4.5            1930.352       765234.1      -1291021.3      99306.251     -1191715        3571744.3    
      4600   4.6            1954.7284      760920.89     -1292275.9      100560.28     -1191715.6      3571744.3    
      4700   4.7            1970.8724      760139.65     -1293106.8      101390.81     -1191716        3571744.3    
      4800   4.8            1976.7391      761369.88     -1293409.1      101692.62     -1191716.5      3571744.3    
      4900   4.9            1989.3256      763289.94     -1294056.7      102340.12     -1191716.6      3571744.3    
      5000   5              2033.1882      763570.24     -1296313.3      104596.62     -1191716.7      3571744.3    
      5100   5.1            2113.4223      760934.33     -1300441.3      108724.23     -1191717.1      3571744.3    
      5200   5.2            2195.9269      755866.59     -1304686        112968.65     -1191717.4      3571744.3    
      5300   5.3            2258.0094      752662.91     -1307880.3      116162.47     -1191717.9      3571744.3    
      5400   5.4            2295.2104      751593.18     -1309794.5      118076.26     -1191718.2      3571744.3    
      5500   5.5            2307.261       751655.21     -1310414.1      118696.19     -1191717.9      3571744.3    
      5600   5.6            2299.4447      752135.42     -1310012.1      118294.09     -1191718        3571744.3    
      5700   5.7            2280.2501      753082.29     -1309025        117306.63     -1191718.4      3571744.3    
      5800   5.8            2264.158       753256.88     -1308197.6      116478.78     -1191718.8      3571744.3    
      5900   5.9            2245.512       752271.89     -1307238.4      115519.54     -1191718.8      3571744.3    
      6000   6              2234.902       750951.84     -1306692.4      114973.71     -1191718.7      3571744.3    
      6100   6.1            2249.3082      749255.45     -1307433.5      115714.83     -1191718.7      3571744.3    
      6200   6.2            2290.6457      746324.36     -1309560.4      117841.43     -1191719        3571744.3    
      6300   6.3            2342.4323      743822.47     -1312224.6      120505.57     -1191719        3571744.3    
      6400   6.4            2399.1294      742127.26     -1315141.4      123422.33     -1191719.1      3571744.3    
      6500   6.5            2446.0259      741833.01     -1317554.2      125834.9      -1191719.3      3571744.3    
      6600   6.6            2470.4177      741464.7      -1318809.4      127089.73     -1191719.6      3571744.3    
      6700   6.7            2484.4708      739688.65     -1319532.6      127812.69     -1191720        3571744.3    
      6800   6.8            2468.9646      738314.1      -1318734.8      127014.98     -1191719.8      3571744.3    
      6900   6.9            2441.8597      737710.23     -1317340.2      125620.57     -1191719.6      3571744.3    
      7000   7              2392.346       738292.55     -1314792.9      123073.36     -1191719.6      3571744.3    
      7100   7.1            2343.5459      740229.12     -1312282.4      120562.86     -1191719.6      3571744.3    
      7200   7.2            2293.737       742372.68     -1309720.2      118000.46     -1191719.7      3571744.3    
      7300   7.3            2244.1842      745278.47     -1307170.9      115451.23     -1191719.6      3571744.3    
      7400   7.4            2204.7202      748894.03     -1305140.7      113421.02     -1191719.7      3571744.3    
      7500   7.5            2179.5476      751745.39     -1303845.6      112126.03     -1191719.6      3571744.3    
      7600   7.6            2165.6962      752891.31     -1303133        111413.45     -1191719.6      3571744.3    
      7700   7.7            2177.9141      752261.81     -1303761.4      112041.99     -1191719.5      3571744.3    
      7800   7.8            2206.4298      749940.3      -1305228.3      113508.97     -1191719.3      3571744.3    
      7900   7.9            2254.1969      746418.22     -1307685.9      115966.33     -1191719.5      3571744.3    
      8000   8              2311.1864      742775.26     -1310617.2      118898.14     -1191719        3571744.3    
      8100   8.1            2372.9771      739714.28     -1313796.4      122076.94     -1191719.5      3571744.3    
      8200   8.2            2428.1289      737564.92     -1316633.6      124914.2      -1191719.4      3571744.3    
      8300   8.3            2481.2284      735360.05     -1319365.4      127645.88     -1191719.5      3571744.3    
      8400   8.4            2518.3671      733607.96     -1321276        129556.47     -1191719.6      3571744.3    
      8500   8.5            2543.8598      732510.21     -1322587.7      130867.93     -1191719.8      3571744.3    
      8600   8.6            2558.8493      731679.87     -1323358.8      131639.06     -1191719.8      3571744.3    
      8700   8.7            2560.3952      731259.71     -1323438.1      131718.59     -1191719.5      3571744.3    
      8800   8.8            2557.712       732026.81     -1323300.3      131580.55     -1191719.7      3571744.3    
      8900   8.9            2559.1036      732830.99     -1323372.3      131652.14     -1191720.1      3571744.3    
      9000   9              2549.138       733831.41     -1322859.5      131139.47     -1191720        3571744.3    
      9100   9.1            2560.264       734253.67     -1323432        131711.84     -1191720.1      3571744.3    
      9200   9.2            2573.5579      733803.89     -1324115.8      132395.74     -1191720.1      3571744.3    
      9300   9.3            2604.6131      732213.77     -1325713.9      133993.36     -1191720.6      3571744.3    
      9400   9.4            2632.7656      729611.13     -1327162.1      135441.66     -1191720.5      3571744.3    
      9500   9.5            2668.9639      726266.41     -1329024.5      137303.87     -1191720.6      3571744.3    
      9600   9.6            2693.1164      723141.02     -1330267.2      138546.38     -1191720.8      3571744.3    
      9700   9.7            2705.3529      721608.5      -1330897.6      139175.88     -1191721.7      3571744.3    
      9800   9.8            2698.2104      722281.16     -1330529.8      138808.44     -1191721.3      3571744.3    
      9900   9.9            2678.026       724208.97     -1329491.8      137770.07     -1191721.7      3571744.3    
     10000   10             2645.9528      727376.6      -1327841.5      136120.07     -1191721.4      3571744.3    
     10100   10.1           2607.1582      731031.03     -1325846        134124.3      -1191721.7      3571744.3    
     10200   10.2           2565.9743      734502.85     -1323727.5      132005.6      -1191721.9      3571744.3    
     10300   10.3           2541.9248      736292.53     -1322490.4      130768.39     -1191722        3571744.3    
     10400   10.4           2527.5663      736802.19     -1321752        130029.72     -1191722.3      3571744.3    
     10500   10.5           2523.7771      734948.89     -1321557.2      129834.79     -1191722.4      3571744.3    
     10600   10.6           2533.2409      732645.33     -1322044        130321.65     -1191722.4      3571744.3    
     10700   10.7           2544.072       730650.38     -1322600.7      130878.85     -1191721.9      3571744.3    
     10800   10.8           2552.8396      729559.72     -1323051.9      131329.9      -1191722        3571744.3    
     10900   10.9           2559.3025      729051.58     -1323384.6      131662.38     -1191722.2      3571744.3    
     11000   11             2555.4657      729512.39     -1323186.8      131464.99     -1191721.8      3571744.3    
     11100   11.1           2564.952       730962.39     -1323675.1      131953.01     -1191722.1      3571744.3    
     11200   11.2           2575.3898      731794.33     -1324212.6      132489.98     -1191722.7      3571744.3    
     11300   11.3           2595.1462      731624.11     -1325229.3      133506.34     -1191722.9      3571744.3    
     11400   11.4           2624.8144      730482.08     -1326755.8      135032.61     -1191723.2      3571744.3    
     11500   11.5           2663.9023      727438.68     -1328766.3      137043.47     -1191722.9      3571744.3    
     11600   11.6           2707.3302      723749.5      -1331000.3      139277.61     -1191722.7      3571744.3    
     11700   11.7           2748.5327      720213.64     -1333120.2      141397.25     -1191722.9      3571744.3    
     11800   11.8           2776.5763      717901.45     -1334563.2      142839.95     -1191723.3      3571744.3    
     11900   11.9           2798.1685      716697.25     -1335673.4      143950.75     -1191722.7      3571744.3    
     12000   12             2802.8895      716934.98     -1335916.1      144193.62     -1191722.5      3571744.3    
     12100   12.1           2796.5075      718488.58     -1335587.8      143865.3      -1191722.5      3571744.3    
     12200   12.2           2785.3431      720381.98     -1335013.5      143290.95     -1191722.6      3571744.3    
     12300   12.3           2774.7998      722631.98     -1334471.2      142748.56     -1191722.6      3571744.3    
     12400   12.4           2771.5879      723759.65     -1334305.7      142583.32     -1191722.4      3571744.3    
     12500   12.5           2774.5486      723811.93     -1334458.4      142735.63     -1191722.8      3571744.3    
     12600   12.6           2780.0441      722181.9      -1334740.4      143018.35     -1191722        3571744.3    
     12700   12.7           2795.9502      719875.68     -1335558.7      143836.63     -1191722.1      3571744.3    
     12800   12.8           2805.6351      718649.32     -1336057        144334.87     -1191722.2      3571744.3    
     12900   12.9           2811.4323      717521.12     -1336355.3      144633.1      -1191722.2      3571744.3    
     13000   13             2803.2158      717993.45     -1335932.9      144210.41     -1191722.5      3571744.3    
     13100   13.1           2774.9772      719787.14     -1334480.4      142757.68     -1191722.7      3571744.3    
     13200   13.2           2750.7808      722503.87     -1333235.5      141512.91     -1191722.6      3571744.3    
     13300   13.3           2717.2126      725617.06     -1331508.2      139786.01     -1191722.2      3571744.3    
     13400   13.4           2687.8112      728630.51     -1329995.6      138273.46     -1191722.2      3571744.3    
     13500   13.5           2672.7596      729972.76     -1329221.3      137499.13     -1191722.2      3571744.3    
     13600   13.6           2669.309       729772.9      -1329043.9      137321.62     -1191722.2      3571744.3    
     13700   13.7           2684.4713      727950.42     -1329823.9      138101.64     -1191722.2      3571744.3    
     13800   13.8           2703.9501      725448.87     -1330825.5      139103.72     -1191721.8      3571744.3    
     13900   13.9           2723.821       723024.96     -1331847.8      140125.97     -1191721.9      3571744.3    
     14000   14             2746.2478      721590.38     -1333001        141279.71     -1191721.3      3571744.3    
     14100   14.1           2758.2065      720879.44     -1333616        141894.92     -1191721.1      3571744.3    
     14200   14.2           2769.5874      720401.41     -1334201.4      142480.41     -1191721        3571744.3    
     14300   14.3           2768.5417      721637.73     -1334147.5      142426.61     -1191720.9      3571744.3    
     14400   14.4           2775.2436      722420.51     -1334491.7      142771.39     -1191720.3      3571744.3    
     14500   14.5           2785.5224      722659.42     -1335020.2      143300.18     -1191720.1      3571744.3    
     14600   14.6           2803.3249      721698.81     -1335936.5      144216.02     -1191720.5      3571744.3    
     14700   14.7           2831.7933      720267.12     -1337400.6      145680.57     -1191720.1      3571744.3    
     14800   14.8           2856.0781      718003.53     -1338650.5      146929.89     -1191720.6      3571744.3    
     14900   14.9           2888.4252      715823.63     -1340315.1      148593.98     -1191721.2      3571744.3    
     15000   15             2915.7518      713058.13     -1341721        149999.78     -1191721.2      3571744.3    
     15100   15.1           2931.1916      711646.81     -1342514.6      150794.08     -1191720.6      3571744.3    
     15200   15.2           2931.8941      711450.45     -1342551.5      150830.22     -1191721.3      3571744.3    
     15300   15.3           2935.0511      712036.11     -1342714.5      150992.63     -1191721.8      3571744.3    
     15400   15.4           2923.2169      713004.95     -1342105.1      150383.82     -1191721.3      3571744.3    
     15500   15.5           2910.0004      714671.95     -1341424.5      149703.9      -1191720.6      3571744.3    
     15600   15.6           2902.0484      715933.24     -1341015.1      149294.82     -1191720.3      3571744.3    
     15700   15.7           2895.069       716340.06     -1340656.7      148935.76     -1191720.9      3571744.3    
     15800   15.8           2885.4582      716284.61     -1340162.2      148441.34     -1191720.9      3571744.3    
     15900   15.9           2884.2332      715967.52     -1340098.7      148378.32     -1191720.4      3571744.3    
     16000   16             2882.5379      715615.54     -1340010.8      148291.1      -1191719.7      3571744.3    
     16100   16.1           2874.5017      715311.99     -1339597.4      147877.69     -1191719.7      3571744.3    
     16200   16.2           2872.8852      715800.48     -1339515.1      147794.53     -1191720.6      3571744.3    
     16300   16.3           2863.959       716938.26     -1339055.6      147335.32     -1191720.3      3571744.3    
     16400   16.4           2851.5738      718031.57     -1338419        146698.17     -1191720.8      3571744.3    
     16500   16.5           2833.3205      719506.33     -1337479.7      145759.13     -1191720.6      3571744.3    
     16600   16.6           2823.4125      720533.6      -1336970.5      145249.42     -1191721.1      3571744.3    
     16700   16.7           2819.9426      720801.49     -1336792.5      145070.91     -1191721.6      3571744.3    
     16800   16.8           2821.6439      721062.37     -1336880.3      145158.43     -1191721.9      3571744.3    
     16900   16.9           2828.9679      720282.17     -1337256.8      145535.21     -1191721.6      3571744.3    
     17000   17             2849.023       718824.41     -1338289.2      146566.94     -1191722.2      3571744.3    
     17100   17.1           2865.9475      717525.28     -1339159.3      147437.62     -1191721.7      3571744.3    
     17200   17.2           2882.9077      715868.17     -1340032.8      148310.13     -1191722.7      3571744.3    
     17300   17.3           2906.2859      715049.62     -1341235        149512.81     -1191722.2      3571744.3    
     17400   17.4           2914.5108      714535.78     -1341658        149935.94     -1191722.1      3571744.3    
     17500   17.5           2926.9197      714034.46     -1342296.1      150574.31     -1191721.8      3571744.3    
     17600   17.6           2935.15        714219.65     -1342719.7      150997.72     -1191722        3571744.3    
     17700   17.7           2951.0433      713390.98     -1343537.3      151815.34     -1191722        3571744.3    
     17800   17.8           2949.4951      712892.21     -1343457.9      151735.69     -1191722.2      3571744.3    
     17900   17.9           2966.8923      712335.57     -1344353        152630.68     -1191722.3      3571744.3    
     18000   18             2980.6612      711853.79     -1345060.6      153339.02     -1191721.6      3571744.3    
     18100   18.1           2989.5557      710910.44     -1345518.5      153796.6      -1191721.9      3571744.3    
     18200   18.2           3004.1542      710355.29     -1346269.2      154547.61     -1191721.6      3571744.3    
     18300   18.3           3013.8414      710338.36     -1346767.7      155045.96     -1191721.7      3571744.3    
     18400   18.4           3014.8044      710420.68     -1346816.9      155095.51     -1191721.4      3571744.3    
     18500   18.5           3006.7804      710915.01     -1346404.3      154682.71     -1191721.6      3571744.3    
     18600   18.6           2995.4542      711683.04     -1345821.6      154100.04     -1191721.6      3571744.3    
     18700   18.7           2983.8871      712807.54     -1345225.9      153504.98     -1191720.9      3571744.3    
     18800   18.8           2972.5591      713716.95     -1344643.1      152922.21     -1191720.9      3571744.3    
     18900   18.9           2958.7592      714178.2      -1343933.7      152212.28     -1191721.4      3571744.3    
     19000   19             2947.9412      714367.4      -1343376.4      151655.75     -1191720.6      3571744.3    
     19100   19.1           2939.1512      715088.28     -1342923.9      151203.55     -1191720.4      3571744.3    
     19200   19.2           2930.7315      715407.57     -1342490.9      150770.41     -1191720.5      3571744.3    
     19300   19.3           2929.8014      715898.14     -1342442.6      150722.56     -1191720.1      3571744.3    
     19400   19.4           2923.3083      716864.38     -1342108.7      150388.52     -1191720.2      3571744.3    
     19500   19.5           2917.8351      717135.29     -1341826.9      150106.96     -1191719.9      3571744.3    
     19600   19.6           2922.7425      717302.85     -1342079.3      150359.41     -1191719.9      3571744.3    
     19700   19.7           2918.4299      717671.04     -1341857.1      150137.56     -1191719.6      3571744.3    
     19800   19.8           2916.7386      717507.73     -1341770.5      150050.54     -1191720        3571744.3    
     19900   19.9           2919.6462      717242.6      -1341920.2      150200.13     -1191720        3571744.3    
     20000   20             2928.0846      716788.03     -1342354.4      150634.24     -1191720.2      3571744.3    
     20100   20.1           2938.2193      716513.5      -1342875.3      151155.61     -1191719.7      3571744.3    
     20200   20.2           2947.5005      716217.4      -1343352.6      151633.08     -1191719.5      3571744.3    
     20300   20.3           2968.4861      715319.77     -1344432        152712.68     -1191719.3      3571744.3    
     20400   20.4           2986.0774      714402.72     -1345336.2      153617.66     -1191718.5      3571744.3    
     20500   20.5           3000.3818      713261.92     -1346072        154353.54     -1191718.5      3571744.3    
     20600   20.6           3013.7646      712512.64     -1346760.1      155042.02     -1191718.1      3571744.3    
     20700   20.7           3027.4784      712055.33     -1347465.5      155747.51     -1191718        3571744.3    
     20800   20.8           3038.7573      711006.8      -1348046.5      156327.75     -1191718.7      3571744.3    
     20900   20.9           3044.7969      710770.86     -1348356.7      156638.46     -1191718.2      3571744.3    
     21000   21             3050.6889      710135.02     -1348659.4      156941.57     -1191717.9      3571744.3    
     21100   21.1           3056.7528      709911.85     -1348971        157253.52     -1191717.5      3571744.3    
     21200   21.2           3059.9705      709802.35     -1349136.2      157419.06     -1191717.1      3571744.3    
     21300   21.3           3067.4902      709899.31     -1349523        157805.91     -1191717.1      3571744.3    
     21400   21.4           3064.4977      709929.82     -1349368.9      157651.96     -1191716.9      3571744.3    
     21500   21.5           3066.9597      710171.22     -1349495.9      157778.62     -1191717.3      3571744.3    
     21600   21.6           3057.6932      709880.33     -1349019        157301.91     -1191717.1      3571744.3    
     21700   21.7           3051.4482      710486.66     -1348697.2      156980.63     -1191716.6      3571744.3    
     21800   21.8           3040.7566      710164.38     -1348146.3      156430.61     -1191715.7      3571744.3    
     21900   21.9           3035.6811      710731.85     -1347885.8      156169.5      -1191716.3      3571744.3    
     22000   22             3021.5409      711262.75     -1347158.2      155442.06     -1191716.1      3571744.3    
     22100   22.1           3012.5249      711967.54     -1346693.9      154978.24     -1191715.7      3571744.3    
     22200   22.2           3005.4818      713011.63     -1346331.3      154615.91     -1191715.4      3571744.3    
     22300   22.3           2993.9121      713430.2      -1345736.6      154020.71     -1191715.9      3571744.3    
     22400   22.4           2988.3434      713592.48     -1345451.4      153734.23     -1191717.2      3571744.3    
     22500   22.5           2984.0534      713982.97     -1345231        153513.53     -1191717.5      3571744.3    
     22600   22.6           2983.96        713903.79     -1345226        153508.73     -1191717.2      3571744.3    
     22700   22.7           2982.7237      714132.37     -1345162        153445.12     -1191716.9      3571744.3    
     22800   22.8           2987.8269      713948.02     -1345425.3      153707.66     -1191717.7      3571744.3    
     22900   22.9           2987.8592      713482.2      -1345427.2      153709.32     -1191717.9      3571744.3    
     23000   23             2991.1847      713274.46     -1345597.3      153880.4      -1191716.9      3571744.3    
     23100   23.1           3002.4572      713090        -1346177.1      154460.31     -1191716.8      3571744.3    
     23200   23.2           3012.2545      712809.84     -1346680.6      154964.33     -1191716.2      3571744.3    
     23300   23.3           3025.6264      712513.53     -1347368.8      155652.24     -1191716.6      3571744.3    
     23400   23.4           3037.931       712001.24     -1348001.8      156285.24     -1191716.5      3571744.3    
     23500   23.5           3049.9527      711148.52     -1348620.7      156903.7      -1191717        3571744.3    
     23600   23.6           3056.4423      710589.6      -1348953.9      157237.55     -1191716.4      3571744.3    
     23700   23.7           3077.563       710318.51     -1350039.8      158324.1      -1191715.7      3571744.3    
     23800   23.8           3080.1966      709252.92     -1350175.4      158459.58     -1191715.8      3571744.3    
     23900   23.9           3094.4899      709207.1      -1350910.4      159194.9      -1191715.5      3571744.3    
     24000   24             3099.2195      709126.25     -1351152.8      159438.21     -1191714.6      3571744.3    
     24100   24.1           3100.4403      708758.61     -1351216        159501.01     -1191715        3571744.3    
     24200   24.2           3105.2826      708627.84     -1351465.7      159750.12     -1191715.5      3571744.3    
     24300   24.3           3106.0779      708594.44     -1351506.7      159791.03     -1191715.7      3571744.3    
     24400   24.4           3105.6429      709095.64     -1351483.3      159768.66     -1191714.7      3571744.3    
     24500   24.5           3102.8758      709138.11     -1351340.1      159626.31     -1191713.7      3571744.3    
     24600   24.6           3096.8374      709883.84     -1351029.3      159315.66     -1191713.7      3571744.3    
     24700   24.7           3093.0207      710425.11     -1350832.3      159119.31     -1191713        3571744.3    
     24800   24.8           3084.5204      710723.67     -1350394.6      158682.02     -1191712.6      3571744.3    
     24900   24.9           3083.1842      711115.56     -1350326.1      158613.28     -1191712.8      3571744.3    
     25000   25             3065.5907      711482.97     -1349420.3      157708.19     -1191712.1      3571744.3    
     25100   25.1           3061.41        712239.43     -1349205        157493.12     -1191711.8      3571744.3    
     25200   25.2           3052.981       712543.4      -1348771.2      157059.48     -1191711.8      3571744.3    
     25300   25.3           3046.4818      713537.51     -1348437        156725.14     -1191711.9      3571744.3    
     25400   25.4           3039.3619      713237.33     -1348070.5      156358.86     -1191711.6      3571744.3    
     25500   25.5           3044.0039      713817.01     -1348309        156597.67     -1191711.3      3571744.3    
     25600   25.6           3032.4692      714210.75     -1347716        156004.26     -1191711.7      3571744.3    
     25700   25.7           3032.8171      714072.18     -1347734.1      156022.16     -1191711.9      3571744.3    
     25800   25.8           3036.5245      714039.54     -1347924.7      156212.89     -1191711.8      3571744.3    
     25900   25.9           3040.4354      713966.58     -1348125.9      156414.09     -1191711.8      3571744.3    
     26000   26             3039.5379      713833.89     -1348079.9      156367.91     -1191712        3571744.3    
     26100   26.1           3045.027       712974.39     -1348362        156650.3      -1191711.7      3571744.3    
     26200   26.2           3056.4434      712760.81     -1348949.7      157237.61     -1191712.1      3571744.3    
     26300   26.3           3067.1349      712439.94     -1349499.7      157787.63     -1191712.1      3571744.3    
     26400   26.4           3080.3746      711764.54     -1350180.6      158468.74     -1191711.8      3571744.3    
     26500   26.5           3092.0465      711229.48     -1350781.8      159069.2      -1191712.6      3571744.3    
     26600   26.6           3106.1447      710965.08     -1351507.1      159794.47     -1191712.7      3571744.3    
     26700   26.7           3110.9906      710380.3      -1351756        160043.77     -1191712.2      3571744.3    
     26800   26.8           3125.1115      709865.95     -1352482.8      160770.21     -1191712.5      3571744.3    
     26900   26.9           3130.6867      709422.18     -1352769.5      161057.03     -1191712.5      3571744.3    
     27000   27             3138.983       709098.79     -1353195.8      161483.83     -1191712        3571744.3    
     27100   27.1           3140.5818      708725.89     -1353278.2      161566.08     -1191712.1      3571744.3    
     27200   27.2           3147.9568      708741.97     -1353657.9      161945.48     -1191712.4      3571744.3    
     27300   27.3           3139.7739      708594.36     -1353236.5      161524.52     -1191711.9      3571744.3    
     27400   27.4           3143.3315      708455.16     -1353418.6      161707.53     -1191711.1      3571744.3    
     27500   27.5           3138.5416      709007.63     -1353172.7      161461.12     -1191711.6      3571744.3    
     27600   27.6           3135.303       709124.62     -1353005.2      161294.51     -1191710.7      3571744.3    
     27700   27.7           3131.2388      709249.64     -1352796.2      161085.43     -1191710.8      3571744.3    
     27800   27.8           3123.4467      709411.64     -1352396.1      160684.57     -1191711.6      3571744.3    
     27900   27.9           3118.3309      710009.52     -1352132.5      160421.39     -1191711.1      3571744.3    
     28000   28             3111.7079      710336.78     -1351791.5      160080.67     -1191710.9      3571744.3    
     28100   28.1           3108.5464      710458.98     -1351628.8      159918.03     -1191710.8      3571744.3    
     28200   28.2           3106.0213      710799.05     -1351499        159788.13     -1191710.9      3571744.3    
     28300   28.3           3100.5069      711232.15     -1351215.1      159504.44     -1191710.7      3571744.3    
     28400   28.4           3088.8691      711229.81     -1350616.1      158905.74     -1191710.4      3571744.3    
     28500   28.5           3086.7123      711223.84     -1350504.7      158794.78     -1191709.9      3571744.3    
     28600   28.6           3085.7282      711400.41     -1350455.3      158744.16     -1191711.2      3571744.3    
     28700   28.7           3084.4982      711812.37     -1350392.1      158680.88     -1191711.2      3571744.3    
     28800   28.8           3081.6969      711719.64     -1350247.6      158536.77     -1191710.8      3571744.3    
     28900   28.9           3084.5668      711538.78     -1350395.1      158684.41     -1191710.7      3571744.3    
     29000   29             3085.6333      711552.7      -1350448.5      158739.27     -1191709.3      3571744.3    
     29100   29.1           3093.4261      711282.1      -1350849.7      159140.17     -1191709.6      3571744.3    
     29200   29.2           3100.3         711023.71     -1351202.8      159493.79     -1191709        3571744.3    
     29300   29.3           3113.3123      710626.69     -1351871.3      160163.21     -1191708.1      3571744.3    
     29400   29.4           3121.2282      710341.58     -1352279.1      160570.44     -1191708.6      3571744.3    
     29500   29.5           3130.9299      710233.5      -1352778        161069.54     -1191708.4      3571744.3    
     29600   29.6           3140.9131      709811.35     -1353291.7      161583.12     -1191708.6      3571744.3    
     29700   29.7           3148.9169      709030.15     -1353703.4      161994.88     -1191708.5      3571744.3    
     29800   29.8           3152.074       708682.15     -1353865.5      162157.29     -1191708.2      3571744.3    
     29900   29.9           3165.1282      708306.54     -1354537.4      162828.86     -1191708.5      3571744.3    
     30000   30             3169.0297      708493.07     -1354737.5      163029.57     -1191707.9      3571744.3    
     30100   30.1           3170.1432      708121.77     -1354794.7      163086.85     -1191707.9      3571744.3    
     30200   30.2           3168.8465      707991.52     -1354728.1      163020.15     -1191707.9      3571744.3    
     30300   30.3           3175.0605      708241.46     -1355047.3      163339.82     -1191707.5      3571744.3    
     30400   30.4           3176.2611      708661.97     -1355109.1      163401.59     -1191707.5      3571744.3    
     30500   30.5           3172.1495      708883.5      -1354897.8      163190.07     -1191707.7      3571744.3    
     30600   30.6           3168.688       708857.96     -1354719.6      163011.99     -1191707.6      3571744.3    
     30700   30.7           3166.0496      709101.38     -1354583.4      162876.26     -1191707.1      3571744.3    
     30800   30.8           3161.415       709526.56     -1354344.9      162637.84     -1191707.1      3571744.3    
     30900   30.9           3151.775       709910.66     -1353850.2      162141.91     -1191708.3      3571744.3    
     31000   31             3145.9785      710077.84     -1353551.9      161843.71     -1191708.2      3571744.3    
     31100   31.1           3140.7289      710405.43     -1353282        161573.64     -1191708.3      3571744.3    
     31200   31.2           3142.7444      710751.43     -1353385.6      161677.33     -1191708.3      3571744.3    
     31300   31.3           3135.1344      711397.6      -1352993.5      161285.84     -1191707.6      3571744.3    
     31400   31.4           3132.1849      711564.48     -1352840.7      161134.1      -1191706.6      3571744.3    
     31500   31.5           3127.6193      711977.26     -1352605.8      160899.23     -1191706.5      3571744.3    
     31600   31.6           3120.2281      711992.21     -1352225.2      160518.99     -1191706.2      3571744.3    
     31700   31.7           3117.1702      711787.62     -1352066.4      160361.68     -1191704.7      3571744.3    
     31800   31.8           3118.9696      711957.03     -1352159        160454.24     -1191704.8      3571744.3    
     31900   31.9           3123.0984      711904.44     -1352371.7      160666.65     -1191705        3571744.3    
     32000   32             3119.0532      711745.11     -1352163        160458.54     -1191704.5      3571744.3    
     32100   32.1           3127.8141      711527.06     -1352613.9      160909.25     -1191704.7      3571744.3    
     32200   32.2           3131.0526      711095.53     -1352780.4      161075.85     -1191704.5      3571744.3    
     32300   32.3           3142.1077      710588.37     -1353349.9      161644.58     -1191705.3      3571744.3    
     32400   32.4           3141.8263      710242.15     -1353335.1      161630.1      -1191705        3571744.3    
     32500   32.5           3152.4153      709910.5      -1353879.7      162174.85     -1191704.8      3571744.3    
     32600   32.6           3164.7686      709401.48     -1354516.2      162810.36     -1191705.8      3571744.3    
     32700   32.7           3177.9157      709191.44     -1355192        163486.71     -1191705.3      3571744.3    
     32800   32.8           3182.1272      708710.03     -1355407.6      163703.36     -1191704.3      3571744.3    
     32900   32.9           3190.6148      708875.92     -1355843.9      164140.01     -1191703.9      3571744.3    
     33000   33             3193.1885      708291.17     -1355974.8      164272.41     -1191702.4      3571744.3    
     33100   33.1           3201.8455      708267.85     -1356420.6      164717.77     -1191702.8      3571744.3    
     33200   33.2           3206.6637      708232.03     -1356668.7      164965.64     -1191703.1      3571744.3    
     33300   33.3           3201.9975      708362.94     -1356428.1      164725.59     -1191702.6      3571744.3    
     33400   33.4           3203.5809      708087.52     -1356510.3      164807.05     -1191703.2      3571744.3    
     33500   33.5           3203.7059      708311.39     -1356516.9      164813.47     -1191703.5      3571744.3    
     33600   33.6           3196.5819      708269.5      -1356150        164446.98     -1191703        3571744.3    
     33700   33.7           3197.597       708812.39     -1356202.7      164499.21     -1191703.5      3571744.3    
     33800   33.8           3196.85        709153.51     -1356163.7      164460.77     -1191702.9      3571744.3    
     33900   33.9           3195.9054      709187.53     -1356115        164412.18     -1191702.9      3571744.3    
     34000   34             3185.6077      709279.83     -1355584.1      163882.42     -1191701.7      3571744.3    
     34100   34.1           3181.4255      709587.51     -1355367.9      163667.27     -1191700.6      3571744.3    
     34200   34.2           3183.5734      710205.5      -1355478.7      163777.77     -1191700.9      3571744.3    
     34300   34.3           3175.9324      710099.92     -1355085.3      163384.68     -1191700.6      3571744.3    
     34400   34.4           3175.6338      710696.21     -1355069.6      163369.31     -1191700.3      3571744.3    
     34500   34.5           3169.7047      710760.26     -1354763.1      163064.3      -1191698.8      3571744.3    
     34600   34.6           3161.8329      710720.65     -1354357.6      162659.33     -1191698.3      3571744.3    
     34700   34.7           3167.6704      710960.94     -1354657.8      162959.64     -1191698.2      3571744.3    
     34800   34.8           3164.9068      710932.67     -1354516.1      162817.47     -1191698.6      3571744.3    
     34900   34.9           3168.5824      710737.16     -1354706.3      163006.56     -1191699.7      3571744.3    
     35000   35             3167.8843      710227.71     -1354669.8      162970.64     -1191699.1      3571744.3    
     35100   35.1           3173.9698      710817.9      -1354983        163283.71     -1191699.2      3571744.3    
     35200   35.2           3180.6499      710376.85     -1355326.9      163627.37     -1191699.5      3571744.3    
     35300   35.3           3184.7482      709789.82     -1355536.2      163838.2      -1191698        3571744.3    
     35400   35.4           3188.0523      709757.09     -1355706.4      164008.18     -1191698.2      3571744.3    
     35500   35.5           3196.4911      709376.91     -1356140.5      164442.31     -1191698.2      3571744.3    
     35600   35.6           3202.9581      708954.02     -1356472.6      164775.01     -1191697.6      3571744.3    
     35700   35.7           3218.2593      708598.77     -1357259.6      165562.17     -1191697.5      3571744.3    
     35800   35.8           3223.9176      708586.83     -1357551.1      165853.26     -1191697.9      3571744.3    
     35900   35.9           3225.5115      708537.68     -1357632        165935.25     -1191696.7      3571744.3    
     36000   36             3238.9607      708142.44     -1358323.9      166627.15     -1191696.8      3571744.3    
     36100   36.1           3240.6363      707827.41     -1358409.5      166713.35     -1191696.1      3571744.3    
     36200   36.2           3243.1707      707938.54     -1358539.8      166843.73     -1191696        3571744.3    
     36300   36.3           3248.2388      707882.36     -1358799.8      167104.45     -1191695.3      3571744.3    
     36400   36.4           3243.6331      708235.99     -1358562.8      166867.51     -1191695.3      3571744.3    
     36500   36.5           3245.7832      708587.8      -1358673.8      166978.12     -1191695.7      3571744.3    
     36600   36.6           3244.6811      708948.34     -1358616.6      166921.43     -1191695.2      3571744.3    
     36700   36.7           3237.9857      708710.84     -1358271.7      166576.99     -1191694.7      3571744.3    
     36800   36.8           3232.4421      709204.21     -1357987        166291.8      -1191695.2      3571744.3    
     36900   36.9           3236.1144      709333.24     -1358176.1      166480.72     -1191695.4      3571744.3    
     37000   37             3227.2453      709398.62     -1357720.5      166024.45     -1191696        3571744.3    
     37100   37.1           3226.253       709723.38     -1357668.7      165973.4      -1191695.3      3571744.3    
     37200   37.2           3216.2442      709751.99     -1357153.8      165458.5      -1191695.3      3571744.3    
     37300   37.3           3223.3321      710115.33     -1357518.1      165823.14     -1191695        3571744.3    
     37400   37.4           3219.2577      709910.39     -1357308        165613.53     -1191694.5      3571744.3    
     37500   37.5           3215.5874      710012.07     -1357118.1      165424.72     -1191693.4      3571744.3    
     37600   37.6           3215.8998      710234.91     -1357134        165440.78     -1191693.2      3571744.3    
     37700   37.7           3213.2572      710871.5      -1356997.5      165304.84     -1191692.7      3571744.3    
     37800   37.8           3216.5983      710621.58     -1357168.1      165476.72     -1191691.4      3571744.3    
     37900   37.9           3212.9515      710532.29     -1356980.7      165289.11     -1191691.6      3571744.3    
     38000   38             3217.9089      710373.71     -1357235.5      165544.14     -1191691.4      3571744.3    
     38100   38.1           3224.1367      710450.64     -1357556.3      165864.53     -1191691.8      3571744.3    
     38200   38.2           3227.9575      710336.4      -1357753.3      166061.09     -1191692.2      3571744.3    
     38300   38.3           3233.6122      709894.75     -1358044.1      166351.99     -1191692.1      3571744.3    
     38400   38.4           3230.6844      709353.37     -1357893.7      166201.37     -1191692.3      3571744.3    
     38500   38.5           3244.4977      709419.98     -1358603.8      166911.99     -1191691.8      3571744.3    
     38600   38.6           3257.3139      709176.83     -1359263.3      167571.32     -1191692        3571744.3    
     38700   38.7           3260.684       708749.87     -1359436        167744.69     -1191691.3      3571744.3    
     38800   38.8           3273.6108      708459.43     -1360101.6      168409.71     -1191691.9      3571744.3    
     38900   38.9           3273.7882      708277.86     -1360109.8      168418.83     -1191690.9      3571744.3    
     39000   39             3280.705       708232.2      -1360465.2      168774.67     -1191690.6      3571744.3    
     39100   39.1           3291.8495      707930.47     -1361037.8      169347.99     -1191689.8      3571744.3    
     39200   39.2           3287.8346      707797.28     -1360831.2      169141.44     -1191689.8      3571744.3    
     39300   39.3           3292.2905      707806.26     -1361059.3      169370.68     -1191688.6      3571744.3    
     39400   39.4           3289.4071      707772.8      -1360910.7      169222.34     -1191688.4      3571744.3    
     39500   39.5           3291.2962      707756.88     -1361007.8      169319.52     -1191688.3      3571744.3    
     39600   39.6           3292.655       708306.79     -1361077.8      169389.43     -1191688.4      3571744.3    
     39700   39.7           3289.8443      708637.03     -1360933.3      169244.83     -1191688.5      3571744.3    
     39800   39.8           3286.0265      708535.92     -1360736.9      169048.43     -1191688.5      3571744.3    
     39900   39.9           3280.4906      708812.08     -1360452.5      168763.63     -1191688.8      3571744.3    
     40000   40             3280.872       709072.61     -1360472        168783.26     -1191688.7      3571744.3    
     40100   40.1           3278.6662      709263.2      -1360358.2      168669.78     -1191688.4      3571744.3    
     40200   40.2           3281.5269      709534.57     -1360504        168816.95     -1191687.1      3571744.3    
     40300   40.3           3274.6938      709226.43     -1360152.7      168465.42     -1191687.2      3571744.3    
     40400   40.4           3277.434       709513.25     -1360293.1      168606.39     -1191686.7      3571744.3    
     40500   40.5           3273.6848      709517.17     -1360100.7      168413.51     -1191687.2      3571744.3    
     40600   40.6           3268.6901      709546.04     -1359844.6      168156.56     -1191688.1      3571744.3    
     40700   40.7           3269.6574      709959.96     -1359894.9      168206.33     -1191688.6      3571744.3    
     40800   40.8           3264.8469      710023.08     -1359647.1      167958.85     -1191688.2      3571744.3    
     40900   40.9           3265.0908      710224.34     -1359659.1      167971.4      -1191687.7      3571744.3    
     41000   41             3268.6863      709982.69     -1359843.4      168156.37     -1191687.1      3571744.3    
     41100   41.1           3275.206       709783.7      -1360179.3      168491.77     -1191687.5      3571744.3    
     41200   41.2           3284.8109      709943.98     -1360673.3      168985.89     -1191687.4      3571744.3    
     41300   41.3           3287.7082      709300.71     -1360821.9      169134.94     -1191687        3571744.3    
     41400   41.4           3289.1168      709138.62     -1360894.3      169207.41     -1191686.9      3571744.3    
     41500   41.5           3298.5859      708926.16     -1361382.1      169694.54     -1191687.5      3571744.3    
     41600   41.6           3303.5045      709051.16     -1361635.3      169947.58     -1191687.7      3571744.3    
     41700   41.7           3313.3085      708782.6      -1362139.5      170451.94     -1191687.6      3571744.3    
     41800   41.8           3317.4692      708464.5      -1362353.7      170665.99     -1191687.7      3571744.3    
     41900   41.9           3325.3769      708412.18     -1362760.4      171072.79     -1191687.6      3571744.3    
     42000   42             3329.0248      708256.35     -1362948.5      171260.46     -1191688.1      3571744.3    
     42100   42.1           3327.16        708119.05     -1362852.3      171164.52     -1191687.7      3571744.3    
     42200   42.2           3335.1195      707929.82     -1363262.7      171574        -1191688.7      3571744.3    
     42300   42.3           3334.5984      708023.35     -1363235.8      171547.19     -1191688.6      3571744.3    
     42400   42.4           3341.0249      708215.77     -1363566.8      171877.8      -1191689        3571744.3    
     42500   42.5           3334.0327      708323.88     -1363206.8      171518.09     -1191688.7      3571744.3    
     42600   42.6           3332.5845      708563.35     -1363131.8      171443.58     -1191688.2      3571744.3    
     42700   42.7           3334.2414      708989.72     -1363217.2      171528.83     -1191688.4      3571744.3    
     42800   42.8           3330.2597      708686.15     -1363012.2      171323.99     -1191688.2      3571744.3    
     42900   42.9           3321.8816      709118.11     -1362581.2      170892.98     -1191688.2      3571744.3    
     43000   43             3327.9042      709335.94     -1362891.5      171202.81     -1191688.7      3571744.3    
     43100   43.1           3319.5698      709267.36     -1362463.7      170774.05     -1191689.6      3571744.3    
     43200   43.2           3318.6321      709491.52     -1362415.5      170725.81     -1191689.6      3571744.3    
     43300   43.3           3318.2728      709346.23     -1362397        170707.33     -1191689.6      3571744.3    
     43400   43.4           3315.5044      709809.18     -1362253.5      170564.91     -1191688.6      3571744.3    
     43500   43.5           3309.359       709889.75     -1361937.6      170248.76     -1191688.8      3571744.3    
     43600   43.6           3312.0612      709929.86     -1362077.5      170387.77     -1191689.8      3571744.3    
     43700   43.7           3306.1927      710101.44     -1361776.3      170085.87     -1191690.4      3571744.3    
     43800   43.8           3312.2448      710084.34     -1362087        170397.22     -1191689.8      3571744.3    
     43900   43.9           3311.6128      709954.13     -1362053.7      170364.71     -1191689        3571744.3    
     44000   44             3319.528       710374.56     -1362462        170771.9      -1191690.1      3571744.3    
     44100   44.1           3313.68        709785.36     -1362159.7      170471.05     -1191688.7      3571744.3    
     44200   44.2           3322.5797      710050.9      -1362618.3      170928.89     -1191689.4      3571744.3    
     44300   44.3           3333.1395      709564.04     -1363162.2      171472.14     -1191690.1      3571744.3    
     44400   44.4           3336.7544      709457.93     -1363348        171658.1      -1191689.9      3571744.3    
     44500   44.5           3331.3284      708754.54     -1363068.6      171378.97     -1191689.7      3571744.3    
     44600   44.6           3344.604       709102.23     -1363751.2      172061.93     -1191689.3      3571744.3    
     44700   44.7           3344.4521      708749.9      -1363742.4      172054.11     -1191688.3      3571744.3    
     44800   44.8           3359.9234      708752.84     -1364538.6      172850.03     -1191688.6      3571744.3    
     44900   44.9           3362.3507      708447.17     -1364662.5      172974.9      -1191687.6      3571744.3    
     45000   45             3366.8027      708710.65     -1364890.6      173203.93     -1191686.6      3571744.3    
     45100   45.1           3369.4253      708228.51     -1365025.4      173338.85     -1191686.5      3571744.3    
     45200   45.2           3367.0679      708094.14     -1364903.1      173217.57     -1191685.6      3571744.3    
     45300   45.3           3372.0887      708234.64     -1365161.4      173475.86     -1191685.5      3571744.3    
     45400   45.4           3369.5327      708383.05     -1365028.9      173344.37     -1191684.5      3571744.3    
     45500   45.5           3375.9635      708573.93     -1365358.7      173675.21     -1191683.5      3571744.3    
     45600   45.6           3372.5156      708370.16     -1365180.8      173497.82     -1191683        3571744.3    
     45700   45.7           3369.7945      708547.84     -1365042        173357.84     -1191684.1      3571744.3    
     45800   45.8           3367.1742      708907.73     -1364905.6      173223.04     -1191682.6      3571744.3    
     45900   45.9           3368.0798      708923.92     -1364953.7      173269.63     -1191684        3571744.3    
     46000   46             3361.6495      709237.41     -1364623.2      172938.82     -1191684.4      3571744.3    
     46100   46.1           3364.7365      709419.62     -1364782        173097.64     -1191684.4      3571744.3    
     46200   46.2           3364.8109      709252.46     -1364785.3      173101.46     -1191683.9      3571744.3    
     46300   46.3           3354.44        709398.44     -1364251.5      172567.94     -1191683.6      3571744.3    
     46400   46.4           3362.7134      709458.57     -1364677.9      172993.56     -1191684.4      3571744.3    
     46500   46.5           3360.7969      709830.13     -1364579.3      172894.96     -1191684.3      3571744.3    
     46600   46.6           3355.1364      709671.03     -1364288.7      172603.76     -1191685        3571744.3    
     46700   46.7           3356.8687      709794.15     -1364377.5      172692.88     -1191684.7      3571744.3    
     46800   46.8           3355.2421      709664.23     -1364294.5      172609.2      -1191685.3      3571744.3    
     46900   46.9           3357.7247      710066.56     -1364420.9      172736.91     -1191684        3571744.3    
     47000   47             3361.0959      709900.37     -1364594.7      172910.35     -1191684.4      3571744.3    
     47100   47.1           3359.3747      709654.24     -1364504.7      172821.8      -1191682.9      3571744.3    
     47200   47.2           3362.0753      709540.97     -1364644.3      172960.73     -1191683.6      3571744.3    
     47300   47.3           3362.1307      709503.9      -1364646        172963.58     -1191682.5      3571744.3    
     47400   47.4           3373.1474      709547.18     -1365212.9      173530.33     -1191682.5      3571744.3    
     47500   47.5           3382.5051      709328.07     -1365692.9      174011.73     -1191681.2      3571744.3    
     47600   47.6           3386.0901      708793.64     -1365876.4      174196.16     -1191680.2      3571744.3    
     47700   47.7           3390.3182      708656.65     -1366094        174413.68     -1191680.3      3571744.3    
     47800   47.8           3398.631       708770.01     -1366522        174841.33     -1191680.7      3571744.3    
     47900   47.9           3388.9794      709277.32     -1366023.3      174344.8      -1191678.5      3571744.3    
     48000   48             3400.2098      709188.9      -1366601.2      174922.55     -1191678.6      3571744.3    
     48100   48.1           3405.3515      708615.15     -1366866.6      175187.06     -1191679.5      3571744.3    
     48200   48.2           3411.1232      708384.08     -1367162.4      175483.98     -1191678.4      3571744.3    
     48300   48.3           3406.0707      708434.94     -1366902.4      175224.06     -1191678.3      3571744.3    
     48400   48.4           3412.1574      708624.37     -1367216.1      175537.18     -1191678.9      3571744.3    
     48500   48.5           3406.3955      708942.3      -1366919.5      175240.76     -1191678.7      3571744.3    
     48600   48.6           3408.5984      708946.87     -1367032.5      175354.09     -1191678.4      3571744.3    
     48700   48.7           3405.1496      709074.9      -1366854.1      175176.67     -1191677.4      3571744.3    
     48800   48.8           3403.6831      709120.78     -1366777.7      175101.23     -1191676.5      3571744.3    
     48900   48.9           3400.0033      709282.62     -1366587.4      174911.92     -1191675.5      3571744.3    
     49000   49             3396.5103      709302.13     -1366407.6      174732.22     -1191675.3      3571744.3    
     49100   49.1           3392.0865      709402.81     -1366180        174504.65     -1191675.3      3571744.3    
     49200   49.2           3396.1909      709797.71     -1366389.8      174715.79     -1191674        3571744.3    
     49300   49.3           3391.7682      710199.66     -1366161.5      174488.27     -1191673.2      3571744.3    
     49400   49.4           3390.2168      709739.96     -1366083        174408.46     -1191674.6      3571744.3    
     49500   49.5           3391.7551      709948.26     -1366161.4      174487.6      -1191673.8      3571744.3    
     49600   49.6           3384.5336      710025.58     -1365788.2      174116.09     -1191672.1      3571744.3    
     49700   49.7           3387.5743      710133.65     -1365944.1      174272.52     -1191671.6      3571744.3    
     49800   49.8           3386.8947      710197.8      -1365909.4      174237.56     -1191671.8      3571744.3    
     49900   49.9           3395.7247      710138.02     -1366363.6      174691.81     -1191671.7      3571744.3    
     50000   50             3392.9774      710318.01     -1366223.5      174550.48     -1191673        3571744.3    
     50100   50.1           3395.8798      710065.35     -1366372.1      174699.79     -1191672.3      3571744.3    
     50200   50.2           3400.5134      709857.36     -1366610.9      174938.16     -1191672.7      3571744.3    
     50300   50.3           3405.7913      709790.47     -1366881.9      175209.69     -1191672.2      3571744.3    
     50400   50.4           3408.7458      709375.6      -1367034.1      175361.68     -1191672.5      3571744.3    
     50500   50.5           3407.7522      709310.16     -1366982.4      175310.56     -1191671.8      3571744.3    
     50600   50.6           3421.157       709274.57     -1367673.2      176000.16     -1191673.1      3571744.3    
     50700   50.7           3418.335       709015.48     -1367529        175854.99     -1191674        3571744.3    
     50800   50.8           3426.981       709146.19     -1367973.7      176299.78     -1191673.9      3571744.3    
     50900   50.9           3430.2996      708910.75     -1368143.9      176470.51     -1191673.4      3571744.3    
     51000   51             3434.0609      709312.05     -1368337.2      176664        -1191673.2      3571744.3    
     51100   51.1           3435.4961      708928.96     -1368411.3      176737.83     -1191673.5      3571744.3    
     51200   51.2           3438.305       709014.55     -1368555.5      176882.34     -1191673.2      3571744.3    
     51300   51.3           3444.7673      708573.1      -1368887.5      177214.79     -1191672.7      3571744.3    
     51400   51.4           3433.6292      708566.59     -1368314        176641.8      -1191672.2      3571744.3    
     51500   51.5           3432.5932      709448.69     -1368259.5      176588.5      -1191671        3571744.3    
     51600   51.6           3436.4976      708998.42     -1368460.9      176789.36     -1191671.5      3571744.3    
     51700   51.7           3437.662       709066.35     -1368520.7      176849.26     -1191671.5      3571744.3    
     51800   51.8           3439.3177      709114.23     -1368605.9      176934.43     -1191671.5      3571744.3    
     51900   51.9           3431.5104      709382.36     -1368203.9      176532.79     -1191671.1      3571744.3    
     52000   52             3431.6104      709936.57     -1368207.9      176537.94     -1191669.9      3571744.3    
     52100   52.1           3431.0348      709799        -1368178.1      176508.33     -1191669.8      3571744.3    
     52200   52.2           3428.5578      709936.17     -1368049.9      176380.9      -1191669        3571744.3    
     52300   52.3           3425.668       709938.45     -1367901.1      176232.23     -1191668.9      3571744.3    
     52400   52.4           3426.5207      709733.18     -1367944.7      176276.1      -1191668.6      3571744.3    
     52500   52.5           3425.9968      710202.9      -1367917.4      176249.15     -1191668.3      3571744.3    
     52600   52.6           3425.8435      710302.66     -1367909.9      176241.26     -1191668.7      3571744.3    
     52700   52.7           3423.147       709956.02     -1367771.2      176102.54     -1191668.7      3571744.3    
     52800   52.8           3426.0659      710179.07     -1367920.4      176252.71     -1191667.7      3571744.3    
     52900   52.9           3421.5284      709846.6      -1367688.4      176019.27     -1191669.1      3571744.3    
     53000   53             3428.963       710159.83     -1368071.1      176401.74     -1191669.4      3571744.3    
     53100   53.1           3436.0926      709997.3      -1368437.3      176768.52     -1191668.8      3571744.3    
     53200   53.2           3436.6386      710089.44     -1368465.7      176796.61     -1191669.1      3571744.3    
     53300   53.3           3437.9151      710185.78     -1368530.3      176862.28     -1191668        3571744.3    
     53400   53.4           3436.9887      709709.44     -1368482.1      176814.62     -1191667.5      3571744.3    
     53500   53.5           3444.6857      709765.46     -1368877.7      177210.59     -1191667.1      3571744.3    
     53600   53.6           3452.1398      709629.04     -1369261.8      177594.07     -1191667.8      3571744.3    
     53700   53.7           3453.3809      709291.02     -1369326.3      177657.91     -1191668.3      3571744.3    
     53800   53.8           3458.7855      709020.12     -1369603.4      177935.95     -1191667.5      3571744.3    
     53900   53.9           3455.9217      709067.72     -1369456.2      177788.62     -1191667.6      3571744.3    
     54000   54             3460.4892      708689.02     -1369693.2      178023.6      -1191669.6      3571744.3    
     54100   54.1           3466.3461      709298.24     -1369994.7      178324.9      -1191669.8      3571744.3    
     54200   54.2           3469.8296      709025.65     -1370173.9      178504.11     -1191669.8      3571744.3    
     54300   54.3           3463.2527      708612.29     -1369833.8      178165.76     -1191668        3571744.3    
     54400   54.4           3470.3899      709100.7      -1370202        178532.93     -1191669.1      3571744.3    
     54500   54.5           3463.5408      708846.48     -1369850.2      178180.58     -1191669.6      3571744.3    
     54600   54.6           3468.1387      709483.25     -1370086.9      178417.12     -1191669.8      3571744.3    
     54700   54.7           3464.2158      709743.93     -1369884.5      178215.31     -1191669.2      3571744.3    
     54800   54.8           3460.957       709686.99     -1369717.6      178047.66     -1191670        3571744.3    
     54900   54.9           3456.1535      710150.06     -1369470.6      177800.55     -1191670.1      3571744.3    
     55000   55             3451.1169      709715.03     -1369210.6      177541.44     -1191669.1      3571744.3    
     55100   55.1           3455.2147      709944.28     -1369422.7      177752.25     -1191670.5      3571744.3    
     55200   55.2           3455.8651      709893.81     -1369455.1      177785.71     -1191669.3      3571744.3    
     55300   55.3           3451.8671      709819.54     -1369249.4      177580.04     -1191669.3      3571744.3    
     55400   55.4           3456.7813      709953.26     -1369504.7      177832.85     -1191671.9      3571744.3    
     55500   55.5           3447.9119      710305.8      -1369048.5      177376.56     -1191671.9      3571744.3    
     55600   55.6           3460.0024      710262.01     -1369671.6      177998.56     -1191673.1      3571744.3    
     55700   55.7           3447.3291      710297.51     -1369019        177346.58     -1191672.4      3571744.3    
     55800   55.8           3448.2494      710125.96     -1369067.1      177393.92     -1191673.2      3571744.3    
     55900   55.9           3448.5925      710313.93     -1369082.6      177411.57     -1191671        3571744.3    
     56000   56             3455.5739      710255.52     -1369442.9      177770.73     -1191672.1      3571744.3    
     56100   56.1           3461.8079      710342.12     -1369764        178091.43     -1191672.6      3571744.3    
     56200   56.2           3456.6471      709747.08     -1369498.1      177825.94     -1191672.1      3571744.3    
     56300   56.3           3459.2671      709953.06     -1369632.5      177960.73     -1191671.7      3571744.3    
     56400   56.4           3465.1059      709657.66     -1369932.2      178261.1      -1191671.1      3571744.3    
     56500   56.5           3473.704       709826.55     -1370375.4      178703.42     -1191671.9      3571744.3    
     56600   56.6           3473.8221      709686.26     -1370380.5      178709.5      -1191671        3571744.3    
     56700   56.7           3473.8909      709737.97     -1370382.6      178713.04     -1191669.6      3571744.3    
     56800   56.8           3482.3806      709288.66     -1370819.5      179149.79     -1191669.7      3571744.3    
     56900   56.9           3486.2894      709292.33     -1371019.6      179350.88     -1191668.8      3571744.3    
     57000   57             3488.3232      709255.43     -1371121.5      179455.5      -1191666        3571744.3    
     57100   57.1           3484.8824      709242.37     -1370943.9      179278.5      -1191665.4      3571744.3    
     57200   57.2           3484.3172      709438.23     -1370915        179249.42     -1191665.6      3571744.3    
     57300   57.3           3488.1228      709523.63     -1371110.2      179445.19     -1191665        3571744.3    
     57400   57.4           3489.4513      709397.63     -1371179.6      179513.54     -1191666        3571744.3    
     57500   57.5           3493.1553      709242.37     -1371370        179704.09     -1191666        3571744.3    
     57600   57.6           3481.1104      709569.16     -1370748.6      179084.45     -1191664.2      3571744.3    
     57700   57.7           3482.8276      709378.27     -1370836.8      179172.79     -1191664        3571744.3    
     57800   57.8           3477.0361      709928.01     -1370538.2      178874.84     -1191663.3      3571744.3    
     57900   57.9           3480.3978      710083.07     -1370710.7      179047.79     -1191662.9      3571744.3    
     58000   58             3483.5921      710011.94     -1370875.4      179212.11     -1191663.2      3571744.3    
     58100   58.1           3478.0636      709828.3      -1370589.9      178927.71     -1191662.2      3571744.3    
     58200   58.2           3482.2165      710206.76     -1370803.6      179141.35     -1191662.3      3571744.3    
     58300   58.3           3478.2509      710134.93     -1370600        178937.34     -1191662.7      3571744.3    
     58400   58.4           3474.9745      710050.13     -1370431.2      178768.79     -1191662.4      3571744.3    
     58500   58.5           3477.8565      710093.02     -1370580.8      178917.05     -1191663.8      3571744.3    
     58600   58.6           3472.8911      710468.98     -1370325.7      178661.61     -1191664.1      3571744.3    
     58700   58.7           3474.5223      710523.22     -1370409.4      178745.53     -1191663.8      3571744.3    
     58800   58.8           3485.9151      710322.79     -1370996.1      179331.62     -1191664.5      3571744.3    
     58900   58.9           3480.755       710151.17     -1370731.6      179066.16     -1191665.5      3571744.3    
     59000   59             3473.0779      710119.13     -1370335.7      178671.22     -1191664.4      3571744.3    
     59100   59.1           3480.2856      710436.37     -1370706.1      179042.02     -1191664.1      3571744.3    
     59200   59.2           3486.6778      709919.4      -1371036.6      179370.86     -1191665.7      3571744.3    
     59300   59.3           3494.6499      709694.3      -1371446.5      179780.98     -1191665.5      3571744.3    
     59400   59.4           3495.9791      709821.88     -1371515.3      179849.36     -1191665.9      3571744.3    
     59500   59.5           3503.502       709963.94     -1371900.4      180236.37     -1191664.1      3571744.3    
     59600   59.6           3495.8423      710188.05     -1371506.3      179842.32     -1191664        3571744.3    
     59700   59.7           3506.0652      709581.27     -1372032.6      180368.24     -1191664.4      3571744.3    
     59800   59.8           3501.8869      709830.44     -1371816.1      180153.28     -1191662.8      3571744.3    
     59900   59.9           3507.2061      709338.75     -1372089        180426.93     -1191662        3571744.3    
     60000   60             3511.1058      709642.75     -1372290.5      180627.55     -1191662.9      3571744.3    
     60100   60.1           3503.6742      709427.7      -1371907.4      180245.24     -1191662.1      3571744.3    
     60200   60.2           3509.8071      709528.33     -1372222.7      180560.74     -1191662        3571744.3    
     60300   60.3           3510.0459      710041.28     -1372234.2      180573.02     -1191661.1      3571744.3    
     60400   60.4           3510.959       710106.11     -1372279.3      180620        -1191659.3      3571744.3    
     60500   60.5           3503.5495      709871.26     -1371896.3      180238.82     -1191657.5      3571744.3    
     60600   60.6           3509.1852      710178.32     -1372187.6      180528.74     -1191658.8      3571744.3    
     60700   60.7           3501.4228      709872.48     -1371787.5      180129.41     -1191658.1      3571744.3    
     60800   60.8           3504.002       710091.08     -1371920.6      180262.1      -1191658.5      3571744.3    
     60900   60.9           3502.6865      710445.38     -1371852.3      180194.42     -1191657.9      3571744.3    
     61000   61             3501.0954      710228.47     -1371770.9      180112.57     -1191658.4      3571744.3    
     61100   61.1           3500.9083      710613.53     -1371761        180102.94     -1191658.1      3571744.3    
     61200   61.2           3498.4917      710150.7      -1371636.2      179978.62     -1191657.6      3571744.3    
     61300   61.3           3496.0032      710809.41     -1371508        179850.6      -1191657.4      3571744.3    
     61400   61.4           3498.5504      710428.83     -1371639.2      179981.64     -1191657.6      3571744.3    
     61500   61.5           3493.0923      710629.99     -1371358.3      179700.85     -1191657.5      3571744.3    
     61600   61.6           3496.79        710671.35     -1371548.9      179891.08     -1191657.8      3571744.3    
     61700   61.7           3499.9303      710682.34     -1371709.3      180052.63     -1191656.7      3571744.3    
     61800   61.8           3496.6229      710510.95     -1371537.3      179882.48     -1191654.8      3571744.3    
     61900   61.9           3494.7232      710411.61     -1371439.2      179784.75     -1191654.4      3571744.3    
     62000   62             3497.0861      710617.42     -1371561.5      179906.31     -1191655.2      3571744.3    
     62100   62.1           3506.5966      710540.9      -1372050.3      180395.57     -1191654.7      3571744.3    
     62200   62.2           3509.5961      710795.35     -1372205.2      180549.88     -1191655.3      3571744.3    
     62300   62.3           3509.1458      710424.36     -1372181.4      180526.72     -1191654.7      3571744.3    
     62400   62.4           3515.1451      710644.95     -1372490.5      180835.35     -1191655.2      3571744.3    
     62500   62.5           3512.5816      710353.8      -1372358.2      180703.47     -1191654.8      3571744.3    
     62600   62.6           3515.2808      709997.62     -1372496.7      180842.33     -1191654.4      3571744.3    
     62700   62.7           3514.0656      709592.01     -1372432.7      180779.82     -1191652.9      3571744.3    
     62800   62.8           3522.5002      710234.27     -1372866.9      181213.73     -1191653.2      3571744.3    
     62900   62.9           3529.9142      709884.31     -1373247.6      181595.14     -1191652.5      3571744.3    
     63000   63             3527.302       709954.27     -1373112.2      181460.76     -1191651.5      3571744.3    
     63100   63.1           3523.9312      710212.92     -1372939.7      181287.35     -1191652.4      3571744.3    
     63200   63.2           3523.5074      709834.71     -1372918        181265.55     -1191652.4      3571744.3    
     63300   63.3           3531.5187      709969.36     -1373330.4      181677.68     -1191652.7      3571744.3    
[...]
     84000   84             3599.9046      710716.24     -1376802.1      185195.77     -1191606.3      3571744.3    
     84100   84.1           3599.607       710893.9      -1376785.9      185180.46     -1191605.4      3571744.3    
     84200   84.2           3601.0524      711053.8      -1376860.8      185254.82     -1191606        3571744.3    
     84300   84.3           3591.6323      710760.26     -1376375.3      184770.2      -1191605.1      3571744.3    
     84400   84.4           3594.204       710801.32     -1376507.2      184902.51     -1191604.7      3571744.3    
     84500   84.5           3597.3667      710973.59     -1376670.4      185065.21     -1191605.2      3571744.3    
     84600   84.6           3588.2753      710751.15     -1376200.3      184597.51     -1191602.8      3571744.3    
     84700   84.7           3583.8337      710967.03     -1375972.2      184369.01     -1191603.2      3571744.3    
     84800   84.8           3592.4454      710664        -1376415.8      184812.04     -1191603.7      3571744.3    
     84900   84.9           3590.0312      711275.61     -1376291.4      184687.84     -1191603.6      3571744.3    
     85000   85             3593.4725      710980.48     -1376468.4      184864.88     -1191603.5      3571744.3    
     85100   85.1           3589.4548      711346.72     -1376263.1      184658.18     -1191604.9      3571744.3    
     85200   85.2           3595.2573      710851.05     -1376559.6      184956.69     -1191602.9      3571744.3    
     85300   85.3           3592.5067      710730.89     -1376418.1      184815.19     -1191602.9      3571744.3    
     85400   85.4           3593.5423      710734.28     -1376472.6      184868.46     -1191604.1      3571744.3    
     85500   85.5           3587.7861      711029.29     -1376177.3      184572.34     -1191604.9      3571744.3    
     85600   85.6           3591.6198      711023.02     -1376373.7      184769.56     -1191604.2      3571744.3    
     85700   85.7           3592.5613      710922.1      -1376419.9      184818        -1191601.9      3571744.3    
     85800   85.8           3595.2501      710963.36     -1376559        184956.32     -1191602.7      3571744.3    
     85900   85.9           3594.3524      710954.6      -1376512.4      184910.14     -1191602.2      3571744.3    
     86000   86             3597.7048      710657.31     -1376684.5      185082.6      -1191601.9      3571744.3    
     86100   86.1           3590.3225      710576.23     -1376304.8      184702.82     -1191601.9      3571744.3    
     86200   86.2           3594.6636      710722.49     -1376527.9      184926.15     -1191601.7      3571744.3    
     86300   86.3           3598.7428      711002.69     -1376736.5      185136        -1191600.5      3571744.3    
     86400   86.4           3596.081       710936.9      -1376599.6      184999.07     -1191600.6      3571744.3    
     86500   86.5           3595.8431      710965.02     -1376587.4      184986.83     -1191600.6      3571744.3    
     86600   86.6           3598.4838      710927.44     -1376722.2      185122.68     -1191599.6      3571744.3    
     86700   86.7           3604.7518      710463.66     -1377044.3      185445.13     -1191599.2      3571744.3    
     86800   86.8           3607.3294      710678.7      -1377177.2      185577.74     -1191599.5      3571744.3    
     86900   86.9           3597.928       710364.26     -1376692.3      185094.08     -1191598.3      3571744.3    
     87000   87             3592.2978      710904.26     -1376403        184804.44     -1191598.5      3571744.3    
     87100   87.1           3597.3434      710455.38     -1376661.6      185064.01     -1191597.6      3571744.3    
     87200   87.2           3598.1346      710488.35     -1376701        185104.71     -1191596.3      3571744.3    
     87300   87.3           3593.9104      710961.41     -1376484.9      184887.4      -1191597.5      3571744.3    
     87400   87.4           3599.9697      710901.54     -1376795.4      185199.12     -1191596.3      3571744.3    
     87500   87.5           3599.1671      710799.73     -1376752.6      185157.83     -1191594.7      3571744.3    
     87600   87.6           3598.6447      710714.77     -1376724.9      185130.95     -1191593.9      3571744.3    
     87700   87.7           3596.2798      711229.38     -1376603.1      185009.3      -1191593.8      3571744.3    
     87800   87.8           3595.0561      711079.2      -1376539.8      184946.34     -1191593.4      3571744.3    
     87900   87.9           3593.4689      710643.47     -1376458.3      184864.69     -1191593.6      3571744.3    
     88000   88             3597.9469      710599.07     -1376688.6      185095.05     -1191593.6      3571744.3    
     88100   88.1           3590.479       710695.11     -1376303.4      184710.87     -1191592.5      3571744.3    
     88200   88.2           3594.0814      710714.29     -1376489.8      184896.2      -1191593.6      3571744.3    
     88300   88.3           3597.5279      711406.07     -1376667.3      185073.5      -1191593.8      3571744.3    
     88400   88.4           3596.1021      710633.37     -1376593.3      185000.15     -1191593.2      3571744.3    
     88500   88.5           3597.8538      710958.71     -1376682.4      185090.27     -1191592.1      3571744.3    
     88600   88.6           3594.166       710837.5      -1376491.4      184900.55     -1191590.8      3571744.3    
     88700   88.7           3598.8228      711002.61     -1376731.4      185140.12     -1191591.3      3571744.3    
     88800   88.8           3601.46        710831.52     -1376866.5      185275.79     -1191590.7      3571744.3    
     88900   88.9           3599.8798      710816.91     -1376784.3      185194.5      -1191589.8      3571744.3    
     89000   89             3601.6184      710682.98     -1376874        185283.94     -1191590.1      3571744.3    
     89100   89.1           3606.7639      711007.5      -1377137.6      185548.65     -1191589        3571744.3    
     89200   89.2           3602.8831      710742.95     -1376938.2      185349        -1191589.2      3571744.3    
     89300   89.3           3602.595       710749.3      -1376922.5      185334.18     -1191588.3      3571744.3    
     89400   89.4           3604.3515      711077.24     -1377012.2      185424.54     -1191587.7      3571744.3    
     89500   89.5           3605.2545      710736.38     -1377058.3      185470.99     -1191587.3      3571744.3    
     89600   89.6           3601.6584      710567.1      -1376872        185285.99     -1191586        3571744.3    
     89700   89.7           3614.3779      710568.21     -1377526        185940.34     -1191585.7      3571744.3    
     89800   89.8           3609.1844      711101.56     -1377258.4      185673.17     -1191585.3      3571744.3    
     89900   89.9           3608.3939      710839.09     -1377219.1      185632.5      -1191586.6      3571744.3    
     90000   90             3607.4271      710778.97     -1377168.2      185582.76     -1191585.4      3571744.3    
     90100   90.1           3608.0013      710904.9      -1377197.7      185612.3      -1191585.4      3571744.3    
     90200   90.2           3603.8808      710772.06     -1376984.9      185400.33     -1191584.6      3571744.3    
     90300   90.3           3600.93        710783.49     -1376833.2      185248.52     -1191584.7      3571744.3    
     90400   90.4           3602.446       711065.52     -1376911.2      185326.51     -1191584.7      3571744.3    
     90500   90.5           3597.7582      710796.28     -1376669.1      185085.35     -1191583.7      3571744.3    
     90600   90.6           3598.9609      711111.26     -1376730.2      185147.22     -1191583        3571744.3    
     90700   90.7           3604.6657      711099.08     -1377024.1      185440.7      -1191583.4      3571744.3    
     90800   90.8           3598.8761      711246.93     -1376726.5      185142.86     -1191583.6      3571744.3    
     90900   90.9           3595.718       711044.04     -1376562.3      184980.39     -1191581.9      3571744.3    
     91000   91             3603.025       710637.46     -1376937.1      185356.3      -1191580.8      3571744.3    
     91100   91.1           3598.1427      710955.2      -1376685        185105.13     -1191579.9      3571744.3    
     91200   91.2           3602.8325      710919.01     -1376926.9      185346.39     -1191580.5      3571744.3    
     91300   91.3           3603.5632      711266.94     -1376963.3      185383.98     -1191579.4      3571744.3    
     91400   91.4           3597.4717      711269.65     -1376648.1      185070.61     -1191577.4      3571744.3    
     91500   91.5           3602.258       710852.73     -1376894.2      185316.84     -1191577.3      3571744.3    
     91600   91.6           3608.2576      711109.07     -1377203.3      185625.49     -1191577.8      3571744.3    
     91700   91.7           3598.1601      710898.08     -1376684.4      185106.03     -1191578.4      3571744.3    
     91800   91.8           3607.3477      710922.21     -1377155.9      185578.68     -1191577.2      3571744.3    
     91900   91.9           3606.9557      711008.27     -1377135.7      185558.51     -1191577.2      3571744.3    
     92000   92             3603.2248      710922.77     -1376943.2      185366.57     -1191576.6      3571744.3    
     92100   92.1           3609.4225      710855.79     -1377262.7      185685.41     -1191577.3      3571744.3    
     92200   92.2           3606.8626      710752.02     -1377130.7      185553.72     -1191577        3571744.3    
     92300   92.3           3605.6571      710879.38     -1377068.2      185491.71     -1191576.5      3571744.3    
     92400   92.4           3605.6306      710609.49     -1377067.4      185490.34     -1191577.1      3571744.3    
     92500   92.5           3602.418       710987.06     -1376899.8      185325.07     -1191574.7      3571744.3    
     92600   92.6           3613.4607      710863.41     -1377469.7      185893.16     -1191576.5      3571744.3    
     92700   92.7           3616.4918      710885.92     -1377624.9      186049.09     -1191575.8      3571744.3    
     92800   92.8           3609.266       710802.91     -1377253.9      185677.36     -1191576.5      3571744.3    
     92900   92.9           3613.2106      710785.98     -1377455.5      185880.29     -1191575.2      3571744.3    
     93000   93             3605.9644      710983.23     -1377082.8      185507.51     -1191575.3      3571744.3    
     93100   93.1           3600.975       710941.58     -1376824.5      185250.83     -1191573.7      3571744.3    
     93200   93.2           3602.1992      710612.52     -1376889.3      185313.81     -1191575.5      3571744.3    
     93300   93.3           3610.0076      711030.8      -1377289.9      185715.51     -1191574.4      3571744.3    
     93400   93.4           3605.1008      711036.03     -1377036.8      185463.09     -1191573.7      3571744.3    
     93500   93.5           3604.7771      710745.03     -1377020        185446.43     -1191573.6      3571744.3    
     93600   93.6           3607.5639      711022.54     -1377163        185589.8      -1191573.2      3571744.3    
     93700   93.7           3601.9387      710954.13     -1376874.4      185300.41     -1191574        3571744.3    
     93800   93.8           3607.2825      710817.35     -1377148.8      185575.32     -1191573.4      3571744.3    
     93900   93.9           3604.8437      710936.79     -1377021.9      185449.86     -1191572        3571744.3    
     94000   94             3591.8663      710672.69     -1376352.8      184782.24     -1191570.6      3571744.3    
     94100   94.1           3598.903       710777.32     -1376717.1      185144.24     -1191572.8      3571744.3    
     94200   94.2           3608.8622      710924.56     -1377229        185656.59     -1191572.4      3571744.3    
     94300   94.3           3602.1969      711056.95     -1376885.1      185313.7      -1191571.4      3571744.3    
     94400   94.4           3601.9088      711080.64     -1376869        185298.88     -1191570.1      3571744.3    
     94500   94.5           3607.4235      710951.49     -1377152.2      185582.58     -1191569.6      3571744.3    
     94600   94.6           3606.7336      710983.5      -1377114.8      185547.09     -1191567.7      3571744.3    
     94700   94.7           3609.9288      710708.39     -1377277.6      185711.46     -1191566.1      3571744.3    
     94800   94.8           3603.5195      710662.11     -1376949.6      185381.74     -1191567.9      3571744.3    
     94900   94.9           3618.6061      711069.42     -1377724.6      186157.86     -1191566.7      3571744.3    
     95000   95             3610.0863      710714.55     -1377285.5      185719.56     -1191565.9      3571744.3    
     95100   95.1           3612.4826      710876.5      -1377408.3      185842.84     -1191565.4      3571744.3    
     95200   95.2           3611.0767      710708.26     -1377336.2      185770.52     -1191565.7      3571744.3    
     95300   95.3           3612.0757      710905.49     -1377387.7      185821.91     -1191565.8      3571744.3    
     95400   95.4           3614.0651      710902.68     -1377488.9      185924.25     -1191564.6      3571744.3    
     95500   95.5           3618.1789      710663.84     -1377698.8      186135.88     -1191563        3571744.3    
     95600   95.6           3611.5081      711040.46     -1377354.6      185792.71     -1191561.9      3571744.3    
     95700   95.7           3615.3891      710939.28     -1377553.5      185992.36     -1191561.1      3571744.3    
     95800   95.8           3612.5816      711116.25     -1377408.9      185847.94     -1191561        3571744.3    
     95900   95.9           3610.6838      710952.39     -1377309.7      185750.3      -1191559.4      3571744.3    
     96000   96             3615.653       711090.1      -1377567        186005.94     -1191561.1      3571744.3    
     96100   96.1           3609.1337      710558.49     -1377230.7      185670.56     -1191560.1      3571744.3    
     96200   96.2           3607.787       710843.74     -1377159.3      185601.28     -1191558        3571744.3    
     96300   96.3           3615.7317      710742.72     -1377569.6      186009.99     -1191559.6      3571744.3    
     96400   96.4           3607.8466      711037.19     -1377162.2      185604.34     -1191557.8      3571744.3    
     96500   96.5           3604.7464      711150.65     -1377002.4      185444.85     -1191557.5      3571744.3    
     96600   96.6           3607.7248      711024.84     -1377155.4      185598.08     -1191557.3      3571744.3    
     96700   96.7           3603.3121      711241.89     -1376926.4      185371.07     -1191555.3      3571744.3    
     96800   96.8           3600.058       711283.98     -1376760.4      185203.66     -1191556.7      3571744.3    
     96900   96.9           3607.6658      711302.75     -1377152        185595.04     -1191556.9      3571744.3    
     97000   97             3607.8536      711133.54     -1377159.9      185604.7      -1191555.2      3571744.3    
     97100   97.1           3611.0159      711109.52     -1377322.4      185767.39     -1191555        3571744.3    
     97200   97.2           3610.9764      711261.02     -1377321.3      185765.36     -1191555.9      3571744.3    
     97300   97.3           3605.3225      711128.78     -1377028.3      185474.49     -1191553.8      3571744.3    
     97400   97.4           3603.3616      711043.22     -1376928        185373.61     -1191554.4      3571744.3    
     97500   97.5           3608.3752      711275.72     -1377185.4      185631.54     -1191553.9      3571744.3    
     97600   97.6           3614.6424      711003.08     -1377505.8      185953.95     -1191551.9      3571744.3    
     97700   97.7           3612.1251      711376.92     -1377374        185824.45     -1191549.6      3571744.3    
     97800   97.8           3613.7269      711228.04     -1377457        185906.86     -1191550.1      3571744.3    
     97900   97.9           3615.7742      711118.99     -1377562        186012.17     -1191549.9      3571744.3    
     98000   98             3610.2942      710810.1      -1377279.8      185730.26     -1191549.6      3571744.3    
     98100   98.1           3610.694       710908.02     -1377297.4      185750.83     -1191546.5      3571744.3    
     98200   98.2           3610.0488      710734.06     -1377263        185717.64     -1191545.3      3571744.3    
     98300   98.3           3615.3259      711180.48     -1377535.5      185989.11     -1191546.4      3571744.3    
     98400   98.4           3617.5953      711048.72     -1377652.9      186105.86     -1191547        3571744.3    
     98500   98.5           3613.3332      710778.02     -1377431.4      185886.6      -1191544.8      3571744.3    
     98600   98.6           3615.1638      710982.78     -1377526.1      185980.77     -1191545.4      3571744.3    
     98700   98.7           3617.9474      711186.05     -1377666.7      186123.97     -1191542.7      3571744.3    
     98800   98.8           3613.328       710998.08     -1377431.2      185886.33     -1191544.9      3571744.3    
     98900   98.9           3609.3153      710986.25     -1377223.6      185679.9      -1191543.7      3571744.3    
     99000   99             3614.6165      710937.4      -1377497.3      185952.62     -1191544.7      3571744.3    
     99100   99.1           3610.3242      710946.6      -1377275.9      185731.81     -1191544.1      3571744.3    
     99200   99.2           3611.9182      711047.94     -1377358.1      185813.81     -1191544.3      3571744.3    
     99300   99.3           3612.2942      710923.46     -1377377.2      185833.15     -1191544.1      3571744.3    
     99400   99.4           3613.4674      711099.28     -1377436.2      185893.5      -1191542.7      3571744.3    
     99500   99.5           3609.4667      711255.48     -1377229.1      185687.69     -1191541.4      3571744.3    
     99600   99.6           3612.1746      711270.16     -1377368.5      185827        -1191541.5      3571744.3    
     99700   99.7           3611.0235      711268.36     -1377310.6      185767.78     -1191542.8      3571744.3    
     99800   99.8           3603.9224      710989.84     -1376943        185402.46     -1191540.6      3571744.3    
     99900   99.9           3608.702       711045.32     -1377189.1      185648.35     -1191540.8      3571744.3    
    100000   100            3603.2823      711077.16     -1376910        185369.54     -1191540.5      3571744.3    
Loop time of 4169.98 on 6 procs for 96202 steps with 397994 atoms

Performance: 1.993 ns/day, 12.041 hours/ns, 23.070 timesteps/s
99.8% CPU use with 6 MPI tasks x 1 OpenMP threads

MPI task timing breakdown:
Section |  min time  |  avg time  |  max time  |%varavg| %total
---------------------------------------------------------------
Pair    | 2859       | 2914.4     | 2966.4     |  74.4 | 69.89
Neigh   | 3.6962     | 3.7275     | 3.7568     |   1.1 |  0.09
Comm    | 163.42     | 176.95     | 189.75     |  76.4 |  4.24
Output  | 56.47      | 56.473     | 56.483     |   0.1 |  1.35
Modify  | 893.08     | 931.42     | 974.97     |  98.9 | 22.34
Other   |            | 86.97      |            |       |  2.09

Nlocal:        66332.3 ave       66945 max       65724 min
Histogram: 2 0 0 0 1 1 0 0 0 2
Nghost:        48663.5 ave       49085 max       48197 min
Histogram: 2 0 0 0 0 1 1 0 0 2
Neighs:              0 ave           0 max           0 min
Histogram: 6 0 0 0 0 0 0 0 0 0

Total # of neighbors = -6
Ave neighs/atom = -1.5075604e-05
Neighbor list builds = 4581
Dangerous builds = 0
Total wall time: 1:11:53
