LAMMPS (29 Sep 2021)
  using 1 OpenMP thread(s) per MPI task
Reading data file ...
  orthogonal box = (-0.045790668 -0.21301866 0.0000000) to (101.84486 101.51208 615.91251)
  3 by 2 by 16 MPI processor grid
  reading atoms ...
  520712 atoms
  reading velocities ...
  520712 velocities
  read_data CPU = 1.238 seconds
281426 atoms in group g_left
239286 atoms in group g_right

CITE-CITE-CITE-CITE-CITE-CITE-CITE-CITE-CITE-CITE-CITE-CITE-CITE

Your simulation uses code contributions which should be cited:
- @article{cjiang2012
The log file lists these citations in BibTeX format.

CITE-CITE-CITE-CITE-CITE-CITE-CITE-CITE-CITE-CITE-CITE-CITE-CITE

Neighbor list info ...
  update every 1 steps, delay 10 steps, check yes
  max neighbors/atom: 2000, page size: 100000
  master list distance cutoff = 8.28721
  ghost atom cutoff = 8.28721
  binsize = 4.143605, bins = 25 25 149
  3 neighbor lists, perpetual/occasional/extra = 3 0 0
  (1) pair eam/alloy, perpetual, skip from (3)
      attributes: half, newton on
      pair build: skip
      stencil: none
      bin: none
  (2) pair edip/multi, perpetual
      attributes: full, newton on
      pair build: full/bin/atomonly
      stencil: full/bin/3d
      bin: standard
  (3) neighbor class addition, perpetual, half/full from (2)
      attributes: half, newton on
      pair build: halffull/newton
      stencil: none
      bin: none
Setting up Verlet run ...
  Unit style    : metal
  Current step  : 0
  Time step     : 0.00025
Per MPI rank memory allocation (min/avg/max) = 6.962 | 14.52 | 18.96 Mbytes
Step Time Temp Press PotEng KinEng TotEng Volume 
       0            0    2212.6792    21768.747   -2461490.2     148929.2     -2312561    6383832.5 
     100        0.025    2212.3782    21839.786   -2461484.8    148908.94   -2312575.9    6378650.1 
     200         0.05    2212.7333    21892.858   -2461505.3    148932.84   -2312572.4    6373467.6 
     300        0.075    2212.3428    21499.336   -2461467.8    148906.55   -2312561.2    6368285.2 
     400          0.1    2212.6389    22012.335   -2461491.1    148926.48   -2312564.6    6363102.8 
     500        0.125    2212.9319    21465.349     -2461517    148946.21   -2312570.8    6357920.4 
     600         0.15    2212.5902    21878.592   -2461493.2    148923.21     -2312570      6352738 
     700        0.175    2212.3267    21896.811   -2461471.5    148905.47     -2312566    6347555.5 
     800          0.2    2212.6589    21883.118   -2461495.7    148927.83   -2312567.9    6342373.1 
     900        0.225    2212.0589    21761.644   -2461459.5    148887.45   -2312572.1    6337190.7 
    1000         0.25    2212.9456    21684.439   -2461519.6    148947.13   -2312572.5    6332008.3 
    1100        0.275    2212.4581    21695.862   -2461486.7    148914.32   -2312572.4    6326825.9 
    1200          0.3    2212.2585    21731.692   -2461476.3    148900.88   -2312575.4    6321643.5 
    1300        0.325    2212.5256    21698.574   -2461498.8    148918.86   -2312579.9      6316461 
    1400         0.35    2212.0789    21713.929     -2461472    148888.79   -2312583.2    6311278.6 
    1500        0.375    2212.5348    21739.605   -2461508.4    148919.47   -2312588.9    6306096.2 
    1600          0.4    2212.4245    21431.312   -2461506.7    148912.05   -2312594.6    6300913.8 
    1700        0.425    2212.0506    21537.511   -2461484.8    148886.88   -2312597.9    6295731.4 
    1800         0.45    2211.7836    21831.978   -2461471.2    148868.91   -2312602.2    6290548.9 
    1900        0.475    2211.9812    21752.389   -2461482.2    148882.22   -2312599.9    6285366.5 
    2000          0.5    2212.2911     21623.31   -2461502.5    148903.07   -2312599.4    6280184.1 
    2100        0.525    2212.3087    21760.474   -2461509.3    148904.26   -2312605.1    6275001.7 
    2200         0.55    2212.3567     21935.42     -2461512    148907.49   -2312604.5    6269819.3 
    2300        0.575    2211.7914    22077.644   -2461466.1    148869.44   -2312596.7    6264636.9 
    2400          0.6    2211.9193    22220.671   -2461471.3    148878.05   -2312593.2    6259454.4 
    2500        0.625    2212.4603    21883.383   -2461509.2    148914.47   -2312594.7      6254272 
    2600         0.65    2212.4345      21778.7   -2461507.3    148912.73   -2312594.6    6249089.6 
    2700        0.675    2211.9584    22431.861   -2461474.8    148880.68   -2312594.1    6243907.2 
    2800          0.7    2211.9275    22104.172   -2461472.1     148878.6   -2312593.4    6238724.8 
    2900        0.725    2212.2779     22133.31   -2461499.3    148902.19   -2312597.1    6233542.3 
    3000         0.75    2211.9358    22126.542   -2461489.6    148879.16   -2312610.4    6228359.9 
    3100        0.775    2211.5961    22076.744   -2461474.8     148856.3   -2312618.5    6223177.5 
    3200          0.8    2212.2068    22255.061   -2461506.4     148897.4     -2312609    6217995.1 
    3300        0.825    2212.3694    22164.867   -2461506.4    148908.34   -2312598.1    6212812.7 
    3400         0.85    2211.8335    22158.354   -2461473.2    148872.27   -2312600.9    6207630.3 
    3500        0.875    2211.7767    22025.814   -2461473.9    148868.45   -2312605.5    6202447.8 
    3600          0.9     2211.737    22204.936   -2461466.8    148865.78     -2312601    6197265.4 
    3700        0.925    2212.5037     22309.27   -2461521.3    148917.38   -2312603.9      6192083 
    3800         0.95    2211.6091    22070.242   -2461472.8    148857.17   -2312615.7    6186900.6 
    3900        0.975    2211.8697    22610.961   -2461492.1    148874.71   -2312617.4    6181718.2 
    4000            1    2211.7901    22357.096   -2461483.6    148869.36   -2312614.2    6176535.7 
    4100        1.025     2211.894    22258.879   -2461500.6    148876.35   -2312624.2    6171353.3 
    4200         1.05    2211.8755    22435.757   -2461509.6     148875.1   -2312634.5    6166170.9 
    4300        1.075    2211.7879    22283.309   -2461497.8     148869.2   -2312628.6    6160988.5 
    4400          1.1    2211.1496    22004.403   -2461446.4    148826.25   -2312620.1    6155806.1 
    4500        1.125    2211.7129    22278.029   -2461497.4    148864.16   -2312633.2    6150623.7 
    4600         1.15    2211.3194    22554.143   -2461480.9    148837.67   -2312643.3    6145441.2 
    4700        1.175    2211.9272    22187.558   -2461513.6    148878.58     -2312635    6140258.8 
    4800          1.2    2211.7612    22299.031   -2461497.2    148867.41   -2312629.8    6135076.4 
    4900        1.225    2211.4808    22412.131     -2461482    148848.54   -2312633.5      6129894 
    5000         1.25    2211.2835    22391.914   -2461470.7    148835.25   -2312635.4    6124711.6 
    5100        1.275    2211.2375    22292.166   -2461467.5    148832.16   -2312635.3    6119529.1 
    5200          1.3    2211.6253    22614.168   -2461498.9    148858.26   -2312640.6    6114346.7 
    5300        1.325    2211.6665    22349.106   -2461510.6    148861.03   -2312649.6    6109164.3 
    5400         1.35    2211.9595    22570.499   -2461530.5    148880.75   -2312649.7    6103981.9 
    5500        1.375    2212.4416     22188.07   -2461560.8     148913.2   -2312647.6    6098799.5 
    5600          1.4    2212.9545    22871.759   -2461599.6    148947.72   -2312651.9    6093617.1 
    5700        1.425    2213.7371     22331.54   -2461656.3     149000.4   -2312655.9    6088434.6 
    5800         1.45    2214.3266    22629.629   -2461690.3    149040.07   -2312650.2    6083252.2 
    5900        1.475    2213.5694    24108.442   -2461634.4    148989.11   -2312645.3    6078069.8 
    6000          1.5     2210.584    26107.287   -2461435.4    148788.18   -2312647.2    6072887.4 
    6100        1.525     2205.104    28257.364   -2461073.5    148419.33   -2312654.1      6067705 
    6200         1.55    2197.1382    31849.645   -2460545.2    147883.17     -2312662    6062522.5 
    6300        1.575      2187.66    36171.892   -2459912.6    147245.22   -2312667.3    6057340.1 
    6400          1.6    2177.6731    40461.142   -2459237.2    146573.03   -2312664.1    6052157.7 
    6500        1.625    2165.9889    44867.489   -2458441.9    145786.61   -2312655.3    6046975.3 
    6600         1.65     2154.621    49719.637   -2457678.2    145021.46   -2312656.7    6041792.9 
    6700        1.675    2142.8178    54967.498   -2456893.8    144227.02   -2312666.8    6036610.4 
    6800          1.7    2130.4552    58436.683   -2456064.7    143394.93   -2312669.8      6031428 
    6900        1.725    2117.8468    63527.767   -2455207.5     142546.3   -2312661.2    6026245.6 
    7000         1.75    2105.2324    67339.461   -2454350.6    141697.26   -2312653.4    6021063.2 
    7100        1.775    2092.4778    70760.605   -2453495.1    140838.78   -2312656.3    6015880.8 
    7200          1.8    2079.6658    74367.667   -2452639.2    139976.44   -2312662.7    6010698.4 
    7300        1.825    2066.9415    77022.473   -2451787.1       139120   -2312667.1    6005515.9 
    7400         1.85     2054.666    79162.976   -2450970.3    138293.77   -2312676.5    6000333.5 
    7500        1.875     2042.366    80840.454     -2450151     137465.9   -2312685.1    5995151.1 
    7600          1.9    2032.3389    81478.709   -2449477.7       136791   -2312686.7    5989968.7 
    7700        1.925    2021.9294    82393.083   -2448773.9    136090.36   -2312683.5    5984786.3 
    7800         1.95    2011.4682    82987.903   -2448072.5    135386.25   -2312686.3    5979603.8 
    7900        1.975    2001.5366    83210.664   -2447413.3    134717.78   -2312695.6    5974421.4 
    8000            2    1991.4849    83754.427   -2446742.2    134041.23     -2312701      5969239 
    8100        2.025    1981.7342     83549.97   -2446085.4    133384.94   -2312700.4    5964056.6 
    8200         2.05    1971.8471    84173.779   -2445414.1    132719.47   -2312694.7    5958874.2 
    8300        2.075    1963.4615    84816.834   -2444849.2    132155.05   -2312694.1    5953691.8 
    8400          2.1     1953.022    85061.969   -2444145.2     131452.4   -2312692.8    5948509.3 
    8500        2.125    1944.4235    85767.298   -2443557.6    130873.66     -2312684    5943326.9 
    8600         2.15     1935.529    85984.228   -2442954.6       130275   -2312679.6    5938144.5 
    8700        2.175    1925.9843    86619.418   -2442319.5    129632.57   -2312686.9    5932962.1 
    8800          2.2    1917.9712    88051.172     -2441787    129093.23   -2312693.8    5927779.7 
    8900        2.225    1909.5145    89026.265   -2441208.6    128524.04   -2312684.6    5922597.2 
    9000         2.25    1901.5777    89885.055   -2440662.5    127989.83   -2312672.7    5917414.8 
    9100        2.275    1893.0618    91554.043   -2440097.2    127416.65   -2312680.5    5912232.4 
    9200          2.3    1884.5446    93407.967   -2439536.9    126843.38   -2312693.6      5907050 
    9300        2.325    1876.1766    94864.113     -2438973    126280.15   -2312692.9    5901867.6 
    9400         2.35    1867.2154    96295.345   -2438362.4       125677   -2312685.4    5896685.2 
    9500        2.375    1859.5137     98489.19     -2437841    125158.63   -2312682.4    5891502.7 
    9600          2.4    1850.2778    99939.464   -2437227.9    124536.98     -2312691    5886320.3 
    9700        2.425    1842.3405    101640.79   -2436701.5    124002.75   -2312698.8    5881137.9 
    9800         2.45    1833.6244    103941.26   -2436111.9    123416.09   -2312695.8    5875955.5 
    9900        2.475    1824.9847    104619.82     -2435528    122834.57   -2312693.5    5870773.1 
   10000          2.5    1817.4444    107010.88   -2435025.6    122327.05   -2312698.5    5865590.6 
   10100        2.525    1808.7169    108430.48   -2434439.9    121739.63   -2312700.3    5860408.2 
   10200         2.55    1800.2854    109751.71   -2433871.4    121172.13   -2312699.2    5855225.8 
   10300        2.575    1791.5195    111201.81   -2433281.5    120582.12   -2312699.3    5850043.4 
   10400          2.6     1783.087    112151.59   -2432711.4    120014.56   -2312696.9      5844861 
   10500        2.625    1773.9154    113413.32   -2432087.5    119397.24   -2312690.3    5839678.6 
   10600         2.65    1765.6019    115483.98   -2431525.3    118837.69   -2312687.6    5834496.1 
   10700        2.675    1756.4189    116453.53   -2430918.9     118219.6   -2312699.3    5829313.7 
   10800          2.7    1747.5231    117909.11   -2430333.1    117620.85   -2312712.3    5824131.3 
   10900        2.725    1739.0362     119207.8   -2429767.5    117049.62   -2312717.9    5818948.9 
   11000         2.75    1732.7821    120965.21   -2429350.3    116628.68   -2312721.6    5813766.5 
   11100        2.775    1731.4242    122006.55   -2429262.2    116537.28   -2312724.9      5808584 
   11200          2.8     1730.975    122445.64   -2429235.2    116507.05   -2312728.1    5803401.6 
   11300        2.825    1730.3752    122842.91     -2429195    116466.67   -2312728.3    5798219.2 
   11400         2.85    1729.1245     123352.6   -2429107.5    116382.49     -2312725    5793036.8 
   11500        2.875    1726.4935     124699.3   -2428933.1    116205.41   -2312727.7    5787854.4 
   11600          2.9    1724.9636    124636.37   -2428836.2    116102.43   -2312733.8      5782672 
   11700        2.925    1723.6404     126030.8   -2428749.7    116013.38   -2312736.4    5777489.5 
   11800         2.95    1720.2405    127934.37   -2428519.4    115784.54   -2312734.8    5772307.1 
   11900        2.975     1716.898    128001.49   -2428293.3    115559.56   -2312733.7    5767124.7 
   12000            3    1712.9756    129091.47   -2428032.1    115295.56   -2312736.6    5761942.3 
   12100        3.025    1708.9068     129964.6   -2427758.2    115021.69   -2312736.5    5756759.9 
   12200         3.05    1705.2765    130846.46   -2427512.4    114777.35   -2312735.1    5751577.4 
   12300        3.075    1700.8426    131888.98   -2427216.3    114478.92   -2312737.4      5746395 
   12400          3.1    1694.8804    133633.11   -2426815.3    114077.62   -2312737.7    5741212.6 
   12500        3.125    1689.2951     134624.3     -2426435    113701.69   -2312733.3    5736030.2 
   12600         3.15    1680.3704    136000.38     -2425836    113100.99     -2312735    5730847.8 
   12700        3.175    1669.5145    138529.35   -2425102.7    112370.31   -2312732.4    5725665.4 
   12800          3.2    1657.0443    140408.79   -2424250.5    111530.98   -2312719.5    5720482.9 
   12900        3.225    1644.4099     141812.3   -2423395.8    110680.59   -2312715.2    5715300.5 
   13000         3.25    1630.0877    144482.64   -2422444.2    109716.61   -2312727.6    5710118.1 
   13100        3.275    1616.8215    145954.18   -2421553.3    108823.69   -2312729.6    5704935.7 
   13200          3.3      1604.21    148284.95     -2420690    107974.85   -2312715.2    5699753.3 
   13300        3.325    1591.3675    150564.64   -2419816.1    107110.46   -2312705.7    5694570.8 
   13400         3.35    1578.1513    152096.93   -2418931.9    106220.92     -2312711    5689388.4 
   13500        3.375    1566.4218    153280.33   -2418151.1    105431.44   -2312719.7      5684206 
   13600          3.4      1554.65    155779.44   -2417353.6    104639.11   -2312714.5    5679023.6 
   13700        3.425    1541.1964    157694.69   -2416434.8    103733.58   -2312701.2    5673841.2 
   13800         3.45    1530.2995    159562.54   -2415693.4    103000.15   -2312693.3    5668658.8 
   13900        3.475    1518.1539     161764.8   -2414874.7    102182.65     -2312692    5663476.3 
   14000          3.5    1506.2501    163472.36   -2414077.2    101381.45   -2312695.8    5658293.9 
   14100        3.525    1494.7863    164890.74   -2413308.6    100609.85   -2312698.7    5653111.5 
   14200         3.55    1484.2772    167108.53     -2412598    99902.512   -2312695.4    5647929.1 
   14300        3.575    1474.5943     169645.5     -2411940    99250.781   -2312689.2    5642746.7 
   14400          3.6    1464.8916    170518.54     -2411283    98597.722   -2312685.3    5637564.2 
   14500        3.625    1455.3516    172256.51   -2410635.7    97955.614   -2312680.1    5632381.8 
   14600         3.65    1446.6277    174045.28   -2410039.3    97368.429   -2312670.9    5627199.4 
   14700        3.675    1438.7202    176422.61   -2409499.6    96836.201   -2312663.4      5622017 
   14800          3.7    1430.5139    178073.19   -2408949.1    96283.858   -2312665.2    5616834.6 
   14900        3.725    1422.7246    179598.91   -2408434.2    95759.577   -2312674.6    5611652.2 
   15000         3.75    1415.0631    181336.64   -2407927.2    95243.903   -2312683.3    5606469.7 
   15100        3.775    1409.0113    182480.56   -2407523.4    94836.575   -2312686.8    5601287.3 
   15200          3.8    1402.0735    183549.99   -2407058.9     94369.61   -2312689.3    5596104.9 
   15300        3.825    1394.8622    184650.47   -2406580.6    93884.237   -2312696.4    5590922.5 
   15400         3.85    1387.6326    185257.79   -2406102.7    93397.636     -2312705    5585740.1 
   15500        3.875    1381.4142    186383.67   -2405686.2    92979.091   -2312707.1    5580557.6 
   15600          3.9    1374.5685    187350.09   -2405223.5    92518.328   -2312705.2    5575375.2 
   15700        3.925    1367.8878    187658.23   -2404775.4    92068.668   -2312706.7    5570192.8 
   15800         3.95    1361.0285    188028.23   -2404311.5    91606.992   -2312704.5    5565010.4 
   15900        3.975    1353.8804    188402.34   -2403820.9    91125.869     -2312695      5559828 
   16000            4    1346.0954    189050.85   -2403287.3    90601.883   -2312685.4    5554645.6 
   16100        4.025    1339.8676    189617.26   -2402868.1    90182.706   -2312685.4    5549463.1 
   16200         4.05    1331.1875    189786.48   -2402295.8    89598.479   -2312697.3    5544280.7 
   16300        4.075    1323.0653     189678.4   -2401755.8    89051.796     -2312704    5539098.3 
   16400          4.1    1316.4834    189576.48   -2401302.3    88608.784   -2312693.5    5533915.9 
   16500        4.125     1307.666    190424.67   -2400696.9    88015.312   -2312681.6    5528733.5 
   16600         4.15     1301.318    191062.42     -2400273    87588.043   -2312684.9      5523551 
   16700        4.175    1292.9947    190768.94   -2399718.6    87027.829   -2312690.8    5518368.6 
   16800          4.2    1286.5004    191872.65   -2399280.3    86590.712   -2312689.6    5513186.2 
   16900        4.225    1283.0409    192062.13   -2399044.6    86357.862   -2312686.7    5508003.8 
   17000         4.25    1282.3445    192530.21   -2398995.5    86310.988   -2312684.5    5502821.4 
   17100        4.275    1279.1099     192952.3   -2398773.7    86093.277   -2312680.4    5497638.9 
   17200          4.3    1278.0361    192451.37   -2398701.3    86021.008   -2312680.3    5492456.5 
   17300        4.325    1275.4004    194638.17   -2398533.1    85843.601   -2312689.5    5487274.1 
   17400         4.35    1274.2828    195277.46   -2398459.3    85768.382   -2312690.9    5482091.7 
   17500        4.375    1272.2206    195837.47   -2398311.3    85629.578   -2312681.7    5476909.3 
   17600          4.4    1269.3301    198409.97   -2398113.8    85435.028   -2312678.7    5471726.9 
   17700        4.425    1267.8471    199381.52   -2398018.9    85335.213   -2312683.7    5466544.4 
   17800         4.45    1265.4851    201707.61   -2397862.4    85176.231   -2312686.2      5461362 
   17900        4.475    1263.0067    204786.04   -2397693.5    85009.418   -2312684.1    5456179.6 
   18000          4.5    1260.0177    206333.54   -2397493.9    84808.238   -2312685.7    5450997.2 
   18100        4.525    1255.7353    209135.11   -2397204.2    84519.999   -2312684.2    5445814.8 
   18200         4.55    1250.6255    211222.92   -2396855.2    84176.073   -2312679.1    5440632.3 
   18300        4.575    1245.6165    213623.49   -2396523.5    83838.932   -2312684.5    5435449.9 
   18400          4.6    1238.7808    216962.76   -2396066.4    83378.839   -2312687.5    5430267.5 
   18500        4.625    1230.2922    220209.17   -2395488.3    82807.495   -2312680.8    5425085.1 
   18600         4.65    1219.4172    223644.92   -2394749.2    82075.532   -2312673.7    5419902.7 
   18700        4.675    1205.4068    227442.13     -2393804     81132.53   -2312671.5    5414720.3 
   18800          4.7    1193.0035    230936.93   -2392972.1      80297.7   -2312674.4    5409537.8 
   18900        4.725    1178.3161    234645.29   -2391985.8    79309.134   -2312676.6    5404355.4 
   19000         4.75    1163.2156    237997.14   -2390968.6    78292.758   -2312675.8      5399173 
   19100        4.775    1149.1572    240949.55   -2390023.2    77346.532   -2312676.7    5393990.6 
   19200          4.8    1132.8725    244123.77   -2388925.5    76250.452     -2312675    5388808.2 
   19300        4.825    1119.5775    247284.28   -2388016.7    75355.607   -2312661.1    5383625.7 
   19400         4.85    1105.0825    250357.61     -2387034    74379.983     -2312654    5378443.3 
   19500        4.875    1091.5462    253005.34   -2386130.6    73468.893   -2312661.7    5373260.9 
   19600          4.9    1076.4852    255669.69   -2385122.6    72455.182   -2312667.4    5368078.5 
   19700        4.925    1062.6132    257577.62   -2384181.1    71521.498   -2312659.6    5362896.1 
   19800         4.95     1049.506    259723.65   -2383295.9    70639.289   -2312656.6    5357713.7 
   19900        4.975    1036.9129    260783.01   -2382462.9    69791.686   -2312671.2    5352531.2 
   20000            5    1023.4175    262975.07   -2381568.3    68883.344   -2312684.9    5347348.8 
   20100        5.025    1013.4783    263622.53   -2380889.8    68214.363   -2312675.4    5342166.4 
   20200         5.05    1001.2119    265509.57   -2380045.2    67388.749   -2312656.5      5336984 
   20300        5.075    990.67819    265906.46     -2379342    66679.754   -2312662.2    5331801.6 
   20400          5.1    981.72695    267345.23   -2378756.5    66077.272   -2312679.2    5326619.1 
   20500        5.125    972.11477    267892.35   -2378109.5    65430.303   -2312679.2    5321436.7 
   20600         5.15    963.96917    268816.88   -2377546.9    64882.046   -2312664.8    5316254.3 
   20700        5.175    955.08851     269886.5   -2376942.3    64284.313     -2312658    5311071.9 
   20800          5.2    947.40567     271917.2   -2376431.5    63767.203   -2312664.3    5305889.5 
   20900        5.225    940.51148    272272.09   -2375969.4    63303.175   -2312666.2    5300707.1 
   21000         5.25    933.98814    273761.86   -2375527.6    62864.107   -2312663.5    5295524.6 
   21100        5.275    928.75141    274338.16   -2375177.7    62511.638   -2312666.1    5290342.2 
   21200          5.3    921.53417    276526.92     -2374699    62025.866   -2312673.1    5285159.8 
   21300        5.325    915.84957    277982.96   -2374321.7    61643.252   -2312678.5    5279977.4 
   21400         5.35    909.61569    279153.98   -2373905.4    61223.666   -2312681.7      5274795 
   21500        5.375     902.8189    280864.36   -2373452.7    60766.194   -2312686.5    5269612.5 
   21600          5.4    897.24447    283084.63   -2373083.6    60390.994   -2312692.6    5264430.1 
   21700        5.425    891.55892    284431.36   -2372703.7    60008.316   -2312695.4    5259247.7 
   21800         5.45    885.01741    286182.49   -2372260.4    59568.026   -2312692.4    5254065.3 
   21900        5.475     878.7114    288042.21   -2371829.7    59143.586   -2312686.1    5248882.9 
   22000          5.5    872.86483    289549.15   -2371426.2    58750.069   -2312676.1    5243700.5 
   22100        5.525    866.13233    291121.84   -2370965.6    58296.924   -2312668.6      5238518 
   22200         5.55     859.7106    292269.88   -2370530.3    57864.695   -2312665.6    5233335.6 
   22300        5.575    853.94897    294250.58   -2370138.6    57476.896   -2312661.7    5228153.2 
   22400          5.6    848.13698    296115.95   -2369744.5    57085.708   -2312658.8    5222970.8 
   22500        5.625    843.36517    297687.14     -2369423    56764.531   -2312658.5    5217788.4 
   22600         5.65    838.11873    299656.03   -2369069.5    56411.408   -2312658.1    5212605.9 
   22700        5.675    834.09627    300604.64     -2368794    56140.667   -2312653.3    5207423.5 
   22800          5.7    832.27609    302154.08   -2368664.8    56018.156   -2312646.6    5202241.1 
   22900        5.725    830.56367    303834.27   -2368547.8    55902.898   -2312644.9    5197058.7 
   23000         5.75    829.23127    304551.93   -2368464.2    55813.218     -2312651    5191876.3 
   23100        5.775    828.53584    305462.34   -2368422.1    55766.411   -2312655.7    5186693.9 
   23200          5.8    827.47666    306233.68   -2368350.6     55695.12   -2312655.5    5181511.4 
   23300        5.825    825.20941    306050.12   -2368191.6    55542.518   -2312649.1      5176329 
   23400         5.85    822.41948     307115.9   -2367992.5    55354.736   -2312637.7    5171146.6 
   23500        5.875    820.25255    308261.46   -2367837.5    55208.885   -2312628.6    5165964.2 
   23600          5.9    816.65788    308835.06   -2367592.8    54966.938   -2312625.9    5160781.8 
   23700        5.925     813.5903    309958.08   -2367380.2    54760.468   -2312619.8    5155599.3 
   23800         5.95    809.80215    310965.01   -2367108.7    54505.498   -2312603.2    5150416.9 
   23900        5.975      805.833    312460.95   -2366806.5    54238.346   -2312568.2    5145234.5 
   24000            6    802.91828    314367.21     -2366544    54042.165   -2312501.8    5140052.1 
   24100        6.025    797.98492    315132.98   -2366078.3    53710.114   -2312368.2    5134869.7 
   24200         6.05    794.55892    316593.24   -2365624.3     53479.52   -2312144.7    5129687.3 
   24300        6.075    790.43256    318285.69   -2365040.6    53201.786   -2311838.8    5124504.8 
   24400          6.1    785.71592    319307.74   -2364353.2    52884.322   -2311468.8    5119322.4 
   24500        6.125    782.12998    321456.59   -2363634.5    52642.963   -2310991.5      5114140 
   24600         6.15    779.81846    324746.21   -2362826.8    52487.381   -2310339.4    5108957.6 
   24700        6.175    777.72111    327043.19   -2361826.4    52346.214   -2309480.2    5103775.2 
   24800          6.2    779.03275    330199.54   -2360886.5    52434.497     -2308452    5098592.7 
   24900        6.225     777.7413    332982.08     -2359721    52347.573   -2307373.5    5093410.3 
   25000         6.25    775.89348    336464.27   -2358528.2    52223.201     -2306305    5088227.9 
   25100        6.275    775.48571    338894.76   -2357359.4    52195.756   -2305163.6    5083045.5 
   25200          6.3    775.06514     341818.4   -2356119.3    52167.448   -2303951.8    5077863.1 
   25300        6.325    774.34292    345487.37   -2354878.4    52118.838   -2302759.6    5072680.7 
   25400         6.35    772.79002    348112.47   -2353565.5    52014.316   -2301551.1    5067498.2 
   25500        6.375    772.67989    350902.27   -2352287.2    52006.904   -2300280.3    5062315.8 
   25600          6.4    773.10881    353432.05   -2351084.8    52035.773     -2299049    5057133.4 
   25700        6.425    772.55417    356159.06   -2349808.6    51998.442   -2297810.1      5051951 
   25800         6.45    770.93036    359421.85   -2348398.2    51889.148     -2296509    5046768.6 
   25900        6.475    772.22247    361406.05     -2347167    51976.116   -2295190.9    5041586.1 
   26000          6.5    774.05536    363977.39   -2345938.3    52099.483   -2293838.8    5036403.7 
   26100        6.525    770.85629    367171.12   -2344418.6    51884.162   -2292534.5    5031221.3 
   26200         6.55    771.01323    369578.12     -2343110    51894.726   -2291215.3    5026038.9 
   26300        6.575     769.1413    371876.75   -2341646.6    51768.732   -2289877.9    5020856.5 
   26400          6.6    769.68276    374334.37   -2340312.3    51805.176   -2288507.1      5015674 
   26500        6.625      768.835    377571.16   -2338807.8    51748.115   -2287059.7    5010491.6 
   26600         6.65    767.51332    380068.21     -2337240    51659.157   -2285580.8    5005309.2 
   26700        6.675    766.51375     382614.4   -2335643.4    51591.879   -2284051.6    5000126.8 
   26800          6.7    763.90301    385173.47   -2333902.1    51416.157     -2282486    4994944.4 
   26900        6.725    763.42515    387806.23     -2332259    51383.994     -2280875      4989762 
   27000         6.75    761.56684     391138.8   -2330421.7    51258.916   -2279162.8    4984579.5 
   27100        6.775    762.19879    394047.56   -2328658.2    51301.451   -2277356.7    4979397.1 
   27200          6.8    763.10815    396997.69   -2326872.1    51362.657   -2275509.4    4974214.7 
   27300        6.825    765.03015    401337.85   -2325004.8    51492.022   -2273512.8    4969032.3 
   27400         6.85    768.48292    404363.36   -2323197.7    51724.418   -2271473.3    4963849.9 
   27500        6.875    771.99683    407175.94   -2321372.3    51960.929   -2269411.4    4958667.4 
   27600          6.9    774.21751    410536.95   -2319402.8    52110.397   -2267292.4      4953485 
   27700        6.925    778.41607     414744.4   -2317499.7     52392.99   -2265106.8    4948302.6 
   27800         6.95    784.87753    417242.79   -2315654.6    52827.893   -2262826.7    4943120.2 
   27900        6.975    793.43935    420658.81   -2313799.8    53404.165   -2260395.6    4937937.8 
   28000            7    804.56154    423595.63     -2311921    54152.768   -2257768.2    4932755.4 
   28100        7.025    820.78979    426240.56   -2310176.1    55245.045   -2254931.1    4927572.9 
   28200         7.05    839.55596     429775.8   -2308461.6    56508.143   -2251953.4    4922390.5 
   28300        7.075    858.35461    432564.11     -2306672    57773.428   -2248898.6    4917208.1 
   28400          7.1    877.55674    435183.48   -2304861.1    59065.869   -2245795.3    4912025.7 
   28500        7.125     898.9531    438314.63     -2303186    60505.998     -2242680    4906843.3 
   28600         7.15    920.23607    441491.24   -2301434.6    61938.494   -2239496.1    4901660.8 
   28700        7.175    941.47768    445016.47   -2299614.4    63368.207   -2236246.2    4896478.4 
   28800          7.2    961.90053    448524.58   -2297752.8    64742.812     -2233010      4891296 
   28900        7.225    980.30726    452188.05   -2295783.3    65981.716   -2229801.6    4886113.6 
   29000         7.25    1000.8974    456363.64   -2293958.1    67367.578   -2226590.6    4880931.2 
   29100        7.275    1020.7787     461057.5   -2291987.9    68705.738   -2223282.2    4875748.8 
   29200          7.3    1040.4699     464991.2   -2289961.1    70031.091     -2219930    4870566.3 
   29300        7.325    1060.5648     469181.6   -2287955.2    71383.628   -2216571.6    4865383.9 
   29400         7.35    1081.0365    473280.16   -2285952.2    72761.517   -2213190.7    4860201.5 
   29500        7.375    1099.5864    478516.88   -2283826.1    74010.058     -2209816    4855019.1 
   29600          7.4    1117.9268    482647.06   -2281662.7    75244.498   -2206418.2    4849836.7 
   29700        7.425    1137.6526    488159.99   -2279537.9     76572.19   -2202965.8    4844654.2 
   29800         7.45    1156.4701    493359.01   -2277338.6    77838.743   -2199499.9    4839471.8 
   29900        7.475    1176.9718    497708.45   -2275226.9    79218.653   -2196008.2    4834289.4 
   30000          7.5    1196.8657     504440.7   -2273066.1    80557.655   -2192508.5      4829107 
   30100        7.525    1215.0428    510072.63   -2270834.4    81781.101   -2189053.3    4823924.6 
   30200         7.55    1232.2659    515602.69     -2268534    82940.339   -2185593.6    4818742.2 
   30300        7.575    1249.4114    522141.02   -2266230.9    84094.358   -2182136.6    4813559.7 
   30400          7.6    1267.2877    527753.86   -2264023.1     85297.56   -2178725.5    4808377.3 
   30500        7.625    1284.3348    533966.06   -2261794.5    86444.955   -2175349.5    4803194.9 
   30600         7.65    1305.5016    539416.41   -2259879.7    87869.632     -2172010    4798012.5 
   30700        7.675    1324.9761    545066.17   -2257888.7    89180.406   -2168708.3    4792830.1 
   30800          7.7    1347.0283    549905.92   -2256047.5    90664.678   -2165382.9    4787647.6 
   30900        7.725    1369.3924    554844.82     -2254243    92169.942   -2162073.1    4782465.2 
   31000         7.75    1390.2716    559838.02   -2252330.8    93575.261   -2158755.5    4777282.8 
   31100        7.775    1411.8509     564732.6   -2250439.8    95027.704   -2155412.1    4772100.4 
   31200          7.8    1434.8722    568769.31   -2248649.7    96577.202   -2152072.5      4766918 
   31300        7.825    1453.1132    573281.25   -2246491.7    97804.954   -2148686.7    4761735.6 
   31400         7.85    1469.3493    577926.57   -2244205.6    98897.755   -2145307.8    4756553.1 
   31500        7.875    1483.7924    580758.32   -2241806.2    99869.879   -2141936.4    4751370.7 
   31600          7.9    1498.8901    585482.81   -2239497.4    100886.06   -2138611.3    4746188.3 
   31700        7.925    1513.3439     589909.7   -2237208.1    101858.91   -2135349.1    4741005.9 
   31800         7.95    1526.8364     594810.6   -2234919.6    102767.05   -2132152.5    4735823.5 
   31900        7.975    1540.2148    597381.07   -2232674.3    103667.51   -2129006.8      4730641 
   32000            8     1554.336    600548.59   -2230441.4    104617.97   -2125823.4    4725458.6 
   32100        8.025    1572.7304    603731.02   -2228429.1    105856.04     -2122573    4720276.2 
   32200         8.05    1594.7232     605761.6   -2226600.7    107336.32   -2119264.4    4715093.8 
   32300        8.075    1615.3666    609193.04   -2224644.9    108725.77   -2115919.2    4709911.4 
   32400          8.1    1638.9911    613318.89   -2222923.6    110315.87   -2112607.7      4704729 
   32500        8.125    1661.2709    615164.38   -2221177.7    111815.46   -2109362.2    4699546.5 
   32600         8.15    1684.2998    619704.82   -2219536.3    113365.47   -2106170.9    4694364.1 
   32700        8.175     1709.047    622535.26   -2218017.7    115031.13   -2102986.6    4689181.7 
   32800          8.2    1729.3842    627000.99   -2216241.8    116399.97   -2099841.8    4683999.3 
   32900        8.225    1750.3092    629970.39   -2214525.7    117808.38   -2096717.4    4678816.9 
   33000         8.25    1773.2513    634054.72   -2212943.3    119352.54   -2093590.8    4673634.4 
   33100        8.275     1791.462    638919.82   -2211016.7    120578.26   -2090438.4      4668452 
   33200          8.3    1812.3826    642261.07   -2209329.2    121986.36   -2087342.9    4663269.6 
   33300        8.325     1832.576    646521.06   -2207625.5    123345.52     -2084280    4658087.2 
   33400         8.35    1850.3476    650413.57   -2205828.8    124541.68   -2081287.1    4652904.8 
   33500        8.375    1868.5486     654874.2   -2204132.6    125766.74   -2078365.8    4647722.4 
   33600          8.4    1882.8907    657820.43   -2202172.6    126732.06   -2075440.6    4642539.9 
   33700        8.425     1899.761       662235   -2200397.5    127867.55   -2072529.9    4637357.5 
   33800         8.45    1913.7281    666955.05   -2198461.7    128807.64     -2069654    4632175.1 
   33900        8.475     1925.336    670662.99   -2196431.7    129588.94   -2066842.8    4626992.7 
   34000          8.5    1937.8363     675240.8   -2194565.8     130430.3   -2064135.5    4621810.3 
   34100        8.525    1948.4681    679457.22   -2192634.7    131145.89   -2061488.8    4616627.8 
   34200         8.55    1959.2468    682481.68   -2190716.9    131871.38   -2058845.5    4611445.4 
   34300        8.575    1970.0291    687485.75   -2188797.6    132597.11   -2056200.5      4606263 
   34400          8.6    1983.2733    691259.12   -2187086.9    133488.53   -2053598.4    4601080.6 
   34500        8.625    1991.5036    695204.38   -2185080.1    134042.49   -2051037.6    4595898.2 
   34600         8.65    2004.2858    699479.85     -2183408    134902.82   -2048505.1    4590715.8 
   34700        8.675    2017.8216    702676.51   -2181770.6    135813.88   -2045956.7    4585533.3 
   34800          8.7    2040.3325    703870.29   -2180688.8    137329.03   -2043359.8    4580350.9 
   34900        8.725    2056.9106    706653.85   -2179144.5    138444.85   -2040699.7    4575168.5 
   35000         8.75    2073.2916    710037.51   -2177610.4    139547.41     -2038063    4569986.1 
   35100        8.775    2090.3776    712145.34   -2176073.3    140697.42   -2035375.9    4564803.7 
   35200          8.8      2096.71    714729.82   -2173720.4    141123.64   -2032596.8    4559621.2 
   35300        8.825    2116.6023    717907.23   -2172312.8    142462.53   -2029850.2    4554438.8 
   35400         8.85    2125.7418    721238.16   -2170260.6    143077.68     -2027183    4549256.4 
   35500        8.875    2131.0992    723706.75   -2168042.7    143438.28   -2024604.4      4544074 
   35600          8.9    2136.5911    728613.59   -2165882.2    143807.92   -2022074.3    4538891.6 
   35700        8.925      2133.69    733355.41   -2163239.3    143612.65   -2019626.6    4533709.1 
   35800         8.95    2136.8593    737700.94   -2160969.2    143825.97   -2017143.2    4528526.7 
   35900        8.975    2135.8469    741721.25   -2158405.9    143757.83   -2014648.1    4523344.3 
   36000            9    2137.2734    747114.47   -2156037.3    143853.84   -2012183.4    4518161.9 
   36100        9.025    2140.9842    752256.44   -2153829.6    144103.61     -2009726    4512979.5 
   36200         9.05    2144.5672    756338.55   -2151601.3    144344.77   -2007256.5    4507797.1 
   36300        9.075    2152.8228    760394.93   -2149615.1    144900.43   -2004714.6    4502614.6 
   36400          9.1    2158.7149    765411.98   -2147347.1    145297.01     -2002050    4497432.2 
   36500        9.125    2171.5624    769146.29   -2145405.1    146161.74   -1999243.3    4492249.8 
   36600         9.15    2182.0467    773945.06   -2143236.8    146867.41   -1996369.4    4487067.4 
   36700        9.175    2198.6039     779527.6   -2141394.1    147981.83   -1993412.3      4481885 
   36800          9.2    2212.5163    785950.53   -2139395.1    148918.23   -1990476.8    4476702.5 
   36900        9.225    2220.4911    792378.75   -2137057.7    149454.99   -1987602.7    4471520.1 
   37000         9.25    2231.1555    799930.95   -2134926.4    150172.78   -1984753.6    4466337.7 
   37100        9.275    2243.5158    807638.95   -2132935.1    151004.72   -1981930.3    4461155.3 
   37200          9.3    2254.8491    813877.73   -2130856.8    151767.53   -1979089.3    4455972.9 
   37300        9.325    2265.9511    821594.53   -2128732.6    152514.78   -1976217.8    4450790.5 
   37400         9.35    2276.8621    828184.68   -2126580.9    153249.17   -1973331.8      4445608 
   37500        9.375    2287.7381    836463.29   -2124442.5     153981.2   -1970461.3    4440425.6 
   37600          9.4    2300.2286     843643.1     -2122382     154821.9   -1967560.1    4435243.2 
   37700        9.425    2312.8634    849730.59   -2120325.3    155672.31     -1964653    4430060.8 
   37800         9.45    2322.6742    856681.63   -2118046.1    156332.65   -1961713.4    4424878.4 
   37900        9.475    2333.5299     862549.6   -2115809.7    157063.31   -1958746.4    4419695.9 
   38000          9.5    2348.3444    868705.98   -2113831.7    158060.44   -1955771.3    4414513.5 
   38100        9.525    2362.4617    873941.45   -2111800.3    159010.63   -1952789.6    4409331.1 
   38200         9.55    2378.5139    879063.48   -2109838.5    160091.06   -1949747.4    4404148.7 
   38300        9.575    2395.1959    884745.72   -2107899.2    161213.88   -1946685.3    4398966.3 
   38400          9.6     2413.154    890001.52   -2106018.5    162422.59   -1943595.9    4393783.9 
   38500        9.625    2431.1605     893526.4   -2104112.9    163634.56   -1940478.3    4388601.4 
   38600         9.65    2451.9304    898146.85   -2102342.5    165032.52   -1937309.9      4383419 
   38700        9.675    2472.8014     902746.3   -2100551.6    166437.29   -1934114.3    4378236.6 
   38800          9.7    2488.5713    909623.83   -2098344.1    167498.72   -1930845.4    4373054.2 
   38900        9.725    2503.7742    913964.73     -2096014    168521.98     -1927492    4367871.8 
   39000         9.75    2518.2737    921813.03   -2093669.5     169497.9   -1924171.6    4362689.3 
   39100        9.775    2527.4909    929612.85   -2090999.6    170118.29   -1920881.3    4357506.9 
   39200          9.8    2539.1097     937951.4     -2088491    170900.31   -1917590.7    4352324.5 
   39300        9.825    2543.9371    945174.79   -2085538.6    171225.23   -1914313.4    4347142.1 
   39400         9.85    2550.6527    953130.72   -2082751.4    171677.24   -1911074.2    4341959.7 
   39500        9.875    2554.1843    963034.96   -2079736.6    171914.94   -1907821.7    4336777.3 
   39600          9.9    2558.5747    973642.83   -2076723.2    172210.44   -1904512.8    4331594.8 
   39700        9.925    2560.8439    982653.07   -2073615.8    172363.18   -1901252.6    4326412.4 
   39800         9.95    2564.2754     991328.4   -2070599.9    172594.15   -1898005.8      4321230 
   39900        9.975    2565.0797    1000366.2   -2067396.3    172648.28     -1894748    4316047.6 
   40000           10    2565.5588    1008199.3   -2064190.6    172680.53     -1891510    4310865.2 
   40100       10.025    2562.5303    1017013.6   -2060788.4    172476.69   -1888311.7    4305682.7 
   40200        10.05    2556.7628    1028117.9   -2057186.8    172088.49   -1885098.3    4300500.3 
   40300       10.075    2552.1596      1037676   -2053746.7    171778.67   -1881968.1    4295317.9 
   40400         10.1    2541.1533    1045359.4   -2049932.1    171037.86   -1878894.3    4290135.5 
   40500       10.125    2532.2485    1053734.7   -2046292.3     170438.5   -1875853.8    4284953.1 
   40600        10.15    2516.6232    1063089.2   -2042297.6    169386.81   -1872910.8    4279770.7 
   40700       10.175    2503.2904    1069413.1   -2038515.8    168489.42   -1870026.4    4274588.2 
   40800         10.2    2485.6729    1077143.8   -2034476.9    167303.63   -1867173.2    4269405.8 
   40900       10.225    2471.9756    1083750.8   -2030725.6     166381.7   -1864343.9    4264223.4 
   41000        10.25    2455.4974    1089880.7   -2026857.5    165272.61   -1861584.9      4259041 
   41100       10.275    2441.2056    1097607.6   -2023163.9    164310.66   -1858853.2    4253858.6 
   41200         10.3     2428.251    1100749.2   -2019619.5    163438.73   -1856180.8    4248676.1 
   41300       10.325     2408.249      1106138     -2015644    162092.45   -1853551.6    4243493.7 
   41400        10.35    2399.2258    1112443.7   -2012440.3    161485.12   -1850955.2    4238311.3 
   41500       10.375    2385.0165    1117318.7   -2008845.8    160528.73     -1848317    4233128.9 
   41600         10.4    2373.7847    1123486.5   -2005333.2    159772.75   -1845560.5    4227946.5 
   41700       10.425    2369.8537    1128878.9   -2002244.1    159508.17   -1842735.9    4222764.1 
   41800        10.45    2364.0431    1134798.7   -1998879.2    159117.07   -1839762.2    4217581.6 
   41900       10.475    2363.8021    1139527.1     -1995794    159100.85   -1836693.1    4212399.2 
   42000         10.5    2361.4128    1148656.3   -1992525.7    158940.04   -1833585.7    4207216.8 
   42100       10.525    2354.1114    1155408.2   -1988983.2     158448.6   -1830534.6    4202034.4 
   42200        10.55    2352.6965    1161916.3   -1985811.8    158353.37   -1827458.4      4196852 
   42300       10.575    2347.8858    1169256.4     -1982443    158029.57   -1824413.5    4191669.5 
   42400         10.6     2343.277    1174293.7   -1979113.5    157719.37   -1821394.1    4186487.1 
   42500       10.625    2333.7525    1181037.9   -1975451.3     157078.3     -1818373    4181304.7 
   42600        10.65    2326.6693    1185782.2     -1971925    156601.54   -1815323.4    4176122.3 
   42700       10.675     2316.159    1190167.2   -1968226.9    155894.13   -1812332.8    4170939.9 
   42800         10.7     2300.272    1193188.1   -1964180.7    154824.82   -1809355.9    4165757.5 
   42900       10.725    2290.3232    1198674.3   -1960504.1    154155.19     -1806349      4160575 
   43000        10.75    2274.3273      1203668   -1956450.4    153078.55   -1803371.9    4155392.6 
   43100       10.775    2257.9964    1206011.9   -1952366.7    151979.37   -1800387.3    4150210.2 
   43200         10.8    2244.5895    1210903.8   -1948425.7    151076.99   -1797348.7    4145027.8 
   43300       10.825     2227.526      1215429   -1944268.2    149928.49   -1794339.7    4139845.4 
   43400        10.85    2208.7864    1219990.4   -1940022.6    148667.18   -1791355.4    4134662.9 
   43500       10.875    2195.8981    1224230.2   -1936121.5    147799.71   -1788321.8    4129480.5 
   43600         10.9    2176.1289    1227962.2   -1931785.5     146469.1   -1785316.4    4124298.1 
   43700       10.925    2158.9691    1231809.6   -1927634.1    145314.12     -1782320    4119115.7 
   43800        10.95    2139.9177    1235734.6   -1923382.6    144031.83   -1779350.7    4113933.3 
   43900       10.975    2122.6884    1240949.2   -1919277.7    142872.17   -1776405.5    4108750.9 
   44000           11     2099.927      1245276   -1914879.5    141340.16   -1773539.4    4103568.4 
   44100       11.025    2080.2699    1248287.1   -1910688.1     140017.1     -1770671      4098386 
   44200        11.05    2064.1171    1256039.9   -1906772.4     138929.9   -1767842.5    4093203.6 
   44300       11.075    2040.2561    1260913.6   -1902342.8    137323.89   -1765018.9    4088021.2 
   44400         11.1    2017.3189    1267309.7   -1898020.8    135780.05   -1762240.7    4082838.8 
   44500       11.125    2000.4892    1274731.1   -1894120.6    134647.28   -1759473.3    4077656.3 
   44600        11.15    1980.7248    1280483.1   -1890074.2       133317   -1756757.2    4072473.9 
   44700       11.175    1961.4003    1288928.1   -1886136.8    132016.32   -1754120.5    4067291.5 
   44800         11.2    1943.8486    1294252.6     -1882314    130834.97   -1751479.1    4062109.1 
   44900       11.225    1926.9885    1302195.8   -1878547.4    129700.16   -1748847.2    4056926.7 
   45000        11.25    1913.4352    1309865.7   -1875042.6    128787.93   -1746254.7    4051744.2 
   45100       11.275    1900.7548    1316300.9   -1871582.2    127934.44   -1743647.7    4046561.8 
   45200         11.3    1882.7274    1322327.6   -1867781.9    126721.07   -1741060.8    4041379.4 
   45300       11.325    1872.9172    1331972.4   -1864552.7    126060.78     -1738492      4036197 
   45400        11.35    1855.5002    1338602.9   -1860786.3    124888.48   -1735897.8    4031014.6 
   45500       11.375    1844.6027      1346503   -1857410.3       124155   -1733255.3    4025832.2 
   45600         11.4    1830.2215    1354126.5   -1853771.1    123187.05   -1730584.1    4020649.7 
   45700       11.425    1817.2585    1362822.1   -1850115.7    122314.55   -1727801.1    4015467.3 
   45800        11.45    1806.9236    1370588.6   -1846528.9    121618.93   -1724909.9    4010284.9 
   45900       11.475    1792.8267    1381714.4   -1842594.5    120670.11   -1721924.4    4005102.5 
   46000         11.5    1783.6525    1387249.3     -1838979    120052.62   -1718926.4    3999920.1 
   46100       11.525     1769.046    1395510.6   -1834969.4     119069.5   -1715899.9    3994737.6 
   46200        11.55    1754.5766    1402613.8   -1831032.6     118095.6     -1712937    3989555.2 
   46300       11.575    1739.1909      1413986   -1826975.5    117060.04   -1709915.4    3984372.8 
   46400         11.6    1720.9542    1421960.1   -1822745.1    115832.58   -1706912.6    3979190.4 
   46500       11.625    1705.1585    1428201.4   -1818608.8    114769.41   -1703839.4      3974008 
   46600        11.65    1686.8452    1435177.5   -1814262.9    113536.79   -1700726.1    3968825.6 
   46700       11.675     1668.552    1441361.3   -1809868.6    112305.53     -1697563    3963643.1 
   46800         11.7    1655.1508    1449413.2   -1805703.1    111403.53   -1694299.6    3958460.7 
   46900       11.725    1641.5804    1456238.5   -1801418.4    110490.15   -1690928.3    3953278.3 
   47000        11.75    1628.2767    1461709.1     -1796989    109594.71   -1687394.3    3948095.9 
   47100       11.775    1618.3242    1467916.3   -1792631.1    108924.84   -1683706.3    3942913.5 
   47200         11.8    1612.6886    1471968.8   -1788329.5    108545.52   -1679783.9      3937731 
   47300       11.825    1610.8147      1483472   -1784185.5    108419.39   -1675766.1    3932548.6 
   47400        11.85    1609.3048    1488959.2   -1779989.2    108317.77   -1671671.4    3927366.2 
   47500       11.875    1606.1147    1495876.7   -1775743.7    108103.05   -1667640.6    3922183.8 
   47600         11.9    1606.4141    1502839.3   -1771798.2     108123.2     -1663675    3917001.4 
   47700       11.925    1600.7496    1512402.8     -1767556    107741.94   -1659814.1      3911819 
   47800        11.95    1596.5067    1516983.6     -1763382    107456.36   -1655925.6    3906636.5 
   47900       11.975    1594.3745    1525071.6   -1759306.6    107312.85   -1651993.8    3901454.1 
   48000           12    1591.5404      1531457   -1755124.8     107122.1   -1648002.7    3896271.7 
   48100       12.025    1587.0886    1538062.8   -1750675.4    106822.45     -1643853    3891089.3 
   48200        12.05    1587.8755    1543821.9   -1746517.2    106875.42   -1639641.8    3885906.9 
   48300       12.075    1587.6709      1552221   -1742165.9    106861.65   -1635304.2    3880724.4 
   48400         12.1     1585.563    1558519.5   -1737637.8    106719.78     -1630918      3875542 
   48500       12.125    1585.3599    1565125.3   -1733141.9     106706.1   -1626435.8    3870359.6 
   48600        12.15     1577.547    1572406.9   -1728098.1    106180.24   -1621917.9    3865177.2 
   48700       12.175    1577.7541    1579520.4   -1723437.5    106194.18   -1617243.4    3859994.8 
   48800         12.2     1570.818    1586327.6   -1718213.7    105727.33   -1612486.4    3854812.4 
   48900       12.225    1572.9038    1595827.8   -1713460.9    105867.72   -1607593.2    3849629.9 
   49000        12.25    1565.7954    1604022.7     -1707959    105389.27   -1602569.7    3844447.5 
   49100       12.275    1565.8975    1609331.1   -1702713.6    105396.14   -1597317.5    3839265.1 
   49200         12.3     1566.101    1617344.8   -1697383.3    105409.84   -1591973.5    3834082.7 
   49300       12.325     1570.872    1625841.3   -1692208.6    105730.97   -1586477.6    3828900.3 
   49400        12.35    1569.3897    1632149.8   -1686446.8    105631.19   -1580815.6    3823717.8 
   49500       12.375    1571.6073    1639027.1   -1680856.1    105780.46   -1575075.7    3818535.4 
   49600         12.4    1574.0715    1649483.3   -1675065.1    105946.32   -1569118.7      3813353 
   49700       12.425    1583.4478      1654567     -1669605     106577.4   -1563027.6    3808170.6 
   49800        12.45    1591.4571    1665467.6   -1663784.4    107116.49   -1556667.9    3802988.2 
   49900       12.475     1602.737    1676505.8   -1657962.1    107875.71   -1550086.4    3797805.8 
   50000         12.5    1617.6924    1686210.9   -1652159.3    108882.31     -1543277    3792623.3 
Loop time of 4815.42 on 96 procs for 50000 steps with 520712 atoms

Performance: 0.224 ns/day, 107.009 hours/ns, 10.383 timesteps/s
100.0% CPU use with 96 MPI tasks x 1 OpenMP threads

MPI task timing breakdown:
Section |  min time  |  avg time  |  max time  |%varavg| %total
---------------------------------------------------------------
Pair    | 1159.5     | 1756.6     | 4710.1     |2190.3 | 36.48
Neigh   | 14.566     | 18.884     | 27.273     |  64.3 |  0.39
Comm    | 32.037     | 573.16     | 3188.8     |3327.8 | 11.90
Output  | 10.909     | 10.911     | 11.003     |   0.3 |  0.23
Modify  | 30.257     | 2450.9     | 3296.8     |2592.2 | 50.90
Other   |            | 4.941      |            |       |  0.10

Nlocal:        5424.08 ave        6288 max        5002 min
Histogram: 13 15 26 23 6 1 0 2 4 6
Nghost:        13024.0 ave       14613 max       12051 min
Histogram: 6 16 19 23 12 4 4 0 6 6
Neighs:         0.00000 ave           0 max           0 min
Histogram: 96 0 0 0 0 0 0 0 0 0
FullNghs:  1.59577e+06 ave  1.8605e+06 max 1.06713e+06 min
Histogram: 6 6 6 0 0 3 15 22 25 13

Total # of neighbors = 1.5319406e+08
Ave neighs/atom = 294.20114
Neighbor list builds = 542
Dangerous builds = 0
Total wall time: 1:20:17
