LAMMPS (29 Sep 2021)
  using 1 OpenMP thread(s) per MPI task
Reading data file ...
  orthogonal box = (0.030692611 -0.11146740 0.0000000) to (101.87479 101.51695 530.81251)
  3 by 2 by 16 MPI processor grid
  reading atoms ...
  449770 atoms
  reading velocities ...
  449770 velocities
  read_data CPU = 4.476 seconds
227721 atoms in group g_left
222049 atoms in group g_right

CITE-CITE-CITE-CITE-CITE-CITE-CITE-CITE-CITE-CITE-CITE-CITE-CITE

Your simulation uses code contributions which should be cited:
- @article{cjiang2012
The log file lists these citations in BibTeX format.

CITE-CITE-CITE-CITE-CITE-CITE-CITE-CITE-CITE-CITE-CITE-CITE-CITE

Neighbor list info ...
  update every 1 steps, delay 10 steps, check yes
  max neighbors/atom: 2000, page size: 100000
  master list distance cutoff = 8.28721
  ghost atom cutoff = 8.28721
  binsize = 4.143605, bins = 25 25 129
  3 neighbor lists, perpetual/occasional/extra = 3 0 0
  (1) pair eam/alloy, perpetual, skip from (3)
      attributes: half, newton on
      pair build: skip
      stencil: none
      bin: none
  (2) pair edip/multi, perpetual
      attributes: full, newton on
      pair build: full/bin/atomonly
      stencil: full/bin/3d
      bin: standard
  (3) neighbor class addition, perpetual, half/full from (2)
      attributes: half, newton on
      pair build: halffull/newton
      stencil: none
      bin: none
Setting up Verlet run ...
  Unit style    : metal
  Current step  : 0
  Time step     : 0.00025
Per MPI rank memory allocation (min/avg/max) = 8.089 | 12.69 | 16.82 Mbytes
Step Time Temp Press PotEng KinEng TotEng Volume 
       0            0    17315.114    192539.28   -2165844.8    1006652.4   -1159192.4    5494044.8 
     100        0.025    17312.751    193261.25     -2165849      1006515     -1159334    5478519.4 
     200         0.05    17313.276    193603.19   -2165853.6    1006545.5     -1159308      5462994 
     300        0.075    17313.809    194320.51     -2165851    1006576.5   -1159274.5    5447468.6 
     400          0.1    17313.037     194432.2   -2165848.6    1006531.6   -1159317.1    5431943.3 
     500        0.125    17313.697    194798.64   -2165857.9      1006570   -1159287.9    5416417.9 
     600         0.15    17313.686    195933.86   -2165848.5    1006569.3   -1159279.1    5400892.5 
     700        0.175    17313.064    196637.79   -2165838.5    1006533.2   -1159305.3    5385367.1 
     800          0.2    17312.746    196811.39   -2165835.7    1006514.7     -1159321    5369841.7 
     900        0.225    17314.088    197748.78   -2165868.9    1006592.7   -1159276.2    5354316.4 
    1000         0.25     17314.01    198133.38   -2165836.4    1006588.2   -1159248.2      5338791 
    1100        0.275    17313.406    198492.26   -2165843.1    1006553.1     -1159290    5323265.6 
    1200          0.3    17312.575    198949.83   -2165853.5    1006504.8   -1159348.7    5307740.2 
    1300        0.325    17312.817     199784.4   -2165854.1    1006518.8   -1159335.2    5292214.8 
    1400         0.35    17313.151    200410.11     -2165862    1006538.3   -1159323.8    5276689.4 
    1500        0.375    17312.815    200655.77     -2165855    1006518.7   -1159336.3    5261164.1 
    1600          0.4    17312.935    201729.12   -2165863.8    1006525.7   -1159338.1    5245638.7 
    1700        0.425    17312.332    201639.84     -2165860    1006490.6   -1159369.4    5230113.3 
    1800         0.45     17314.46    202500.28   -2165992.2    1006614.3   -1159377.9    5214587.9 
    1900        0.475    17308.122    205201.34   -2165617.8    1006245.9   -1159371.9    5199062.5 
    2000          0.5    17263.602    215444.35   -2162998.5    1003657.6   -1159340.9    5183537.1 
    2100        0.525    17151.493    235187.58   -2156485.6    997139.89   -1159345.7    5168011.8 
    2200         0.55    17004.796    257013.24     -2147977    988611.35   -1159365.6    5152486.4 
    2300        0.575    16855.082    278476.71   -2139297.2    979907.36   -1159389.9      5136961 
    2400          0.6    16712.869    296964.97   -2131041.8    971639.48   -1159402.3    5121435.6 
    2500        0.625    16575.234    314436.37   -2123049.9    963637.78   -1159412.2    5105910.2 
    2600         0.65    16429.628    331894.73   -2114567.6    955172.67   -1159394.9    5090384.9 
    2700        0.675    16287.652    346816.57     -2106269    946918.57   -1159350.5    5074859.5 
    2800          0.7     16143.48     361229.6   -2097881.6    938536.84   -1159344.7    5059334.1 
    2900        0.725    15987.558    376412.02   -2088840.5    929471.94   -1159368.5    5043808.7 
    3000         0.75    15816.588    392697.81   -2078895.7    919532.21   -1159363.5    5028283.3 
    3100        0.775    15651.863    407251.47   -2069314.5    909955.61   -1159358.9    5012757.9 
    3200          0.8    15490.469    418671.13   -2059974.8    900572.56   -1159402.2    4997232.6 
    3300        0.825    15334.489    429246.27   -2050897.2    891504.34   -1159392.9    4981707.2 
    3400         0.85    15188.252    440462.04   -2042371.2    883002.54   -1159368.6    4966181.8 
    3500        0.875    15039.983    448986.09   -2033773.4    874382.58   -1159390.9    4950656.4 
    3600          0.9    14894.884    456953.04     -2025386    865946.92     -1159439      4935131 
    3700        0.925     14758.16     467648.7     -2017439    857998.17   -1159440.8    4919605.6 
    3800         0.95    14627.702    474055.21   -2009838.1    850413.74   -1159424.4    4904080.3 
    3900        0.975     14503.09    483639.46     -2002622    843169.16   -1159452.8    4888554.9 
    4000            1     14386.04     489598.3     -1995843    836364.19   -1159478.8    4873029.5 
    4100        1.025      14264.8    496789.01   -1988809.2     829315.6   -1159493.6    4857504.1 
    4200         1.05    14157.085    503515.77   -1982527.6    823053.37   -1159474.3    4841978.7 
    4300        1.075    14049.489    506863.56   -1976280.7    816798.04   -1159482.6    4826453.3 
    4400          1.1    13942.549    513266.09   -1970105.9    810580.83     -1159525      4810928 
    4500        1.125     13844.54    517672.86   -1964402.7    804882.85   -1159519.8    4795402.6 
    4600         1.15     13745.32    523643.79     -1958608    799114.48   -1159493.5    4779877.2 
    4700        1.175    13646.777    527090.89   -1952886.3    793385.48   -1159500.8    4764351.8 
    4800          1.2     13547.13    534411.46   -1947082.5    787592.28   -1159490.2    4748826.4 
    4900        1.225    13442.769    537928.13   -1940983.3       781525   -1159458.3    4733301.1 
    5000         1.25    13329.138    545515.42   -1934371.2    774918.85   -1159452.3    4717775.7 
    5100        1.275    13218.488    550618.04   -1927933.9    768485.94   -1159447.9    4702250.3 
    5200          1.3    13093.642    555863.44   -1920657.3    761227.78   -1159429.5    4686724.9 
    5300        1.325      12972.8    562673.55   -1913628.1    754202.37   -1159425.7    4671199.5 
    5400         1.35     12843.17    571515.45   -1906084.5       746666   -1159418.5    4655674.1 
    5500        1.375    12756.909    576644.78   -1901118.5    741651.06   -1159467.4    4640148.8 
    5600          1.4    12734.562    580665.62   -1899816.5    740351.86   -1159464.6    4624623.4 
    5700        1.425    12678.879    581535.89   -1896545.6    737114.58     -1159431      4609098 
    5800         1.45    12635.042    585758.92   -1894001.3    734566.04   -1159435.2    4593572.6 
    5900        1.475     12574.41    588935.94   -1890496.3    731041.07   -1159455.3    4578047.2 
    6000          1.5    12510.381    594175.48   -1886772.5    727318.59   -1159453.9    4562521.8 
    6100        1.525    12445.985    597488.64     -1883047     723574.8   -1159472.2    4546996.5 
    6200         1.55    12372.186    603911.17   -1878792.9    719284.33   -1159508.6    4531471.1 
    6300        1.575    12288.248     610935.4   -1873947.7    714404.41   -1159543.3    4515945.7 
    6400          1.6    12206.455    617069.37   -1869126.7    709649.22   -1159477.5    4500420.3 
    6500        1.625    12129.077    624112.98   -1864584.7    705150.65   -1159434.1    4484894.9 
    6600         1.65    12032.815    632901.39   -1859035.8    699554.26   -1159481.6    4469369.6 
    6700        1.675    11877.583    649379.44     -1850029    690529.49   -1159499.5    4453844.2 
    6800          1.7    11704.553    659178.88     -1839961    680470.02   -1159490.9    4438318.8 
    6900        1.725    11531.824    673295.35   -1829917.4    670428.02   -1159489.3    4422793.4 
    7000         1.75     11375.15    689824.81   -1820853.2    661319.45   -1159533.8      4407268 
    7100        1.775    11197.849    704776.03   -1810558.1    651011.64   -1159546.5    4391742.6 
    7200          1.8    11034.599    716280.03   -1801033.3    641520.75   -1159512.6    4376217.3 
    7300        1.825    10863.619    732360.65   -1791108.2    631580.44   -1159527.8    4360691.9 
    7400         1.85    10704.463    746672.47   -1781904.7    622327.56   -1159577.2    4345166.5 
    7500        1.875    10538.395    762479.68   -1772230.4    612672.86   -1159557.5    4329641.1 
    7600          1.9    10384.532    777988.12   -1763255.6     603727.7   -1159527.9    4314115.7 
    7700        1.925    10228.151    788975.31   -1754136.7    594636.12   -1159500.5    4298590.3 
    7800         1.95     10083.45    804228.91   -1745753.8    586223.63   -1159530.2      4283065 
    7900        1.975       9942.5    814411.84     -1737551    578029.17   -1159521.8    4267539.6 
    8000            2    9802.1613    827372.62   -1729356.1    569870.27   -1159485.9    4252014.2 
    8100        2.025    9669.5469    838359.63   -1721624.2    562160.44   -1159463.8    4236488.8 
    8200         2.05    9572.9063    849108.01   -1715974.7    556542.03   -1159432.7    4220963.4 
    8300        2.075    9528.3194    851428.11   -1713362.4    553949.87   -1159412.5    4205438.1 
    8400          2.1    9444.3906     854970.2   -1708453.6    549070.48   -1159383.1    4189912.7 
    8500        2.125    9388.5519    861604.64   -1705217.5    545824.18   -1159393.3    4174387.3 
    8600         2.15    9339.7336    863476.03   -1702383.6    542986.02   -1159397.6    4158861.9 
    8700        2.175    9269.3738     867352.4   -1698285.4     538895.5   -1159389.9    4143336.5 
    8800          2.2    9226.8589    871710.02     -1695838     536423.8   -1159414.2    4127811.1 
    8900        2.225    9157.4127    876187.68   -1691804.1    532386.39   -1159417.7    4112285.8 
    9000         2.25    9111.9217    881848.44   -1689150.9    529741.67   -1159409.3    4096760.4 
    9100        2.275    9031.9161    885595.37   -1684463.6    525090.37   -1159373.2      4081235 
    9200          2.3    8969.4468    892387.86   -1680823.8    521458.58   -1159365.2    4065709.6 
    9300        2.325    8901.4797    898746.78   -1676906.4    517507.16   -1159399.3    4050184.2 
    9400         2.35    8777.9494     908540.6   -1669721.2    510325.46   -1159395.7    4034658.8 
    9500        2.375    8684.9548    914864.59   -1664296.7    504919.01   -1159377.7    4019133.5 
    9600          2.4    8620.0789    921024.16   -1660539.8    501147.31   -1159392.5    4003608.1 
    9700        2.425    8548.7971    928581.49   -1656407.9    497003.18   -1159404.7    3988082.7 
    9800         2.45    8420.4551    936990.91   -1648924.5    489541.73   -1159382.8    3972557.3 
    9900        2.475    8350.5116    944162.22   -1644868.2    485475.42   -1159392.8    3957031.9 
   10000          2.5     8299.053    955833.29   -1641855.4    482483.75   -1159371.6    3941506.5 
   10100        2.525    8203.0731    971633.54   -1636249.5    476903.75   -1159345.7    3925981.2 
   10200         2.55    8120.2996    985043.91   -1631409.1    472091.53   -1159317.6    3910455.8 
   10300        2.575    8018.5603    1000889.6   -1625517.3    466176.69   -1159340.6    3894930.4 
   10400          2.6    7906.6959    1016993.7   -1619025.3    459673.21   -1159352.1      3879405 
   10500        2.625    7794.7474    1031888.2   -1612477.2    453164.84   -1159312.3    3863879.6 
   10600         2.65      7668.85    1050082.8   -1605130.6    445845.51   -1159285.1    3848354.3 
   10700        2.675    7523.6626    1072551.4   -1596704.7    437404.72     -1159300    3832828.9 
   10800          2.7    7381.1471    1091667.6   -1588419.1    429119.27   -1159299.9    3817303.5 
   10900        2.725     7203.451    1110165.5   -1578073.5    418788.52     -1159285    3801778.1 
   11000         2.75    7037.2459    1128624.1     -1568420    409125.82   -1159294.2    3786252.7 
   11100        2.775    6885.5185    1147264.1   -1559571.2    400304.81   -1159266.4    3770727.3 
   11200          2.8    6730.6837      1165934   -1550555.7    391303.15   -1159252.6      3755202 
   11300        2.825    6575.3158    1179559.8   -1541532.8    382270.49   -1159262.3    3739676.6 
   11400         2.85    6440.1432    1192807.2   -1533676.6    374411.93   -1159264.7    3724151.2 
   11500        2.875     6307.301    1207096.1   -1525920.7    366688.86   -1159231.8    3708625.8 
   11600          2.9    6175.9564    1222666.3     -1518284    359052.85   -1159231.2    3693100.4 
   11700        2.925    6062.0785    1234430.9   -1511643.1    352432.31   -1159210.8      3677575 
   11800         2.95    5947.8029    1243977.2   -1505003.5    345788.64   -1159214.9    3662049.7 
   11900        2.975    5847.8276    1256771.2   -1499160.2    339976.36   -1159183.9    3646524.3 
   12000            3    5744.5694    1268238.1   -1493112.1    333973.21   -1159138.9    3630998.9 
   12100        3.025    5654.4167    1279669.4   -1487837.7    328731.99   -1159105.8    3615473.5 
   12200         3.05    5561.6992    1290614.2   -1482451.4    323341.65   -1159109.7    3599948.1 
   12300        3.075    5468.1441    1304010.4   -1477025.2    317902.62   -1159122.5    3584422.8 
   12400          3.1    5381.7788    1316041.8   -1472009.7    312881.59   -1159128.1    3568897.4 
   12500        3.125    5341.6979    1322123.2   -1469664.5    310551.39   -1159113.1      3553372 
   12600         3.15    5302.6776    1325485.2   -1467412.4    308282.86   -1159129.5    3537846.6 
   12700        3.175    5225.8095    1331054.3   -1462945.5    303813.96   -1159131.5    3522321.2 
   12800          3.2    5176.1747    1334673.6   -1460022.1    300928.34   -1159093.8    3506795.8 
   12900        3.225    5100.0094    1342307.1   -1455585.9     296500.3   -1159085.6    3491270.5 
   13000         3.25     5001.489    1353650.7   -1449861.3     290772.6   -1159088.7    3475745.1 
   13100        3.275    4945.2124    1365667.6   -1446605.6    287500.83   -1159104.8    3460219.7 
   13200          3.3    4841.8228    1382969.1   -1440600.1    281490.05   -1159110.1    3444694.3 
   13300        3.325    4759.1234    1393148.9   -1435797.3    276682.14   -1159115.1    3429168.9 
   13400         3.35    4654.1202    1410490.4     -1429615    270577.55   -1159037.5    3413643.5 
   13500        3.375    4544.2282    1429316.6   -1423199.3    264188.73   -1159010.6    3398118.2 
   13600          3.4    4454.8509    1448161.3   -1416089.8    258992.59   -1157097.2    3382592.8 
   13700        3.425    4634.4472    1475801.3   -1406393.7    269433.81   -1136959.9    3367067.4 
   13800         3.45    4508.5932    1505658.7   -1384859.7    262117.01   -1122742.7      3351542 
   13900        3.475    4476.0396      1538661   -1364685.1    260224.44   -1104460.7    3336016.6 
   14000          3.5    4803.2041    1576333.1   -1346216.5    279244.87   -1066971.7    3320491.3 
   14100        3.525    4905.3973    1609696.6   -1320718.8    285186.09   -1035532.7    3304965.9 
   14200         3.55    5015.8096      1644347   -1302142.7    291605.15   -1010537.6    3289440.5 
   14300        3.575    5118.2863    1688597.1   -1276898.4    297562.86   -979335.49    3273915.1 
   14400          3.6     5238.839      1736255   -1250004.4    304571.46   -945432.96    3258389.7 
   14500        3.625    5301.8497      1785185   -1221834.8    308234.73   -913600.04    3242864.3 
   14600         3.65    5330.5576    1833280.6     -1191971    309903.73   -882067.26      3227339 
   14700        3.675    5511.8205    1886730.9   -1162349.7    320441.84   -841907.89    3211813.6 
   14800          3.7    5813.0764    1939108.2   -1131513.6    337956.02   -793557.54    3196288.2 
   14900        3.725     6047.662    1992020.2   -1100244.9    351594.17   -748650.71    3180762.8 
   15000         3.75    6256.6585    2048380.4   -1069783.1    363744.65    -706038.5    3165237.4 
   15100        3.775    6559.4781    2096955.7   -1040550.6    381349.73   -659200.86      3149712 
   15200          3.8    6874.2807    2152037.6   -1010820.7    399651.47   -611169.26    3134186.7 
   15300        3.825    7215.6256    2205417.3   -982911.54    419496.31   -563415.23    3118661.3 
   15400         3.85    7625.0535    2259643.9   -956401.03    443299.31   -513101.72    3103135.9 
   15500        3.875     8077.436    2309011.7   -930721.03    469599.56   -461121.47    3087610.5 
   15600          3.9    8524.5843    2359418.2   -904983.47    495595.51   -409387.95    3072085.1 
   15700        3.925     8998.393    2415009.5   -880279.88    523141.43   -357138.45    3056559.8 
   15800         3.95    9495.1376    2469819.8   -856312.53    552020.77   -304291.76    3041034.4 
   15900        3.975     9992.831    2519435.8   -832518.63    580955.28   -251563.35      3025509 
   16000            4    10451.181    2575158.1   -806189.01    607602.44   -198586.57    3009983.6 
   16100        4.025    10918.482    2630370.3   -780287.02    634770.04   -145516.98    2994458.2 
   16200         4.05    11405.285    2684512.7   -755806.79    663071.41   -92735.387    2978932.8 
   16300        4.075    11858.408    2740942.7   -730369.65     689414.7   -40954.947    2963407.5 
   16400          4.1        12324    2788571.9   -705534.76    716482.92    10948.154    2947882.1 
   16500        4.125    12743.749    2840633.2   -679499.06    740885.94    61386.877    2932356.7 
   16600         4.15    13151.051    2904471.9   -652782.68    764565.35    111782.67    2916831.3 
   16700        4.175    13537.218    2976991.7   -625301.02    787016.05    161715.03    2901305.9 
   16800          4.2     13861.01    3042003.7   -594465.68    805840.42    211374.74    2885780.5 
   16900        4.225     14195.87    3107848.7   -564334.69     825308.2    260973.51    2870255.2 
   17000         4.25    14546.681    3181151.7   -534604.69    845703.37    311098.68    2854729.8 
   17100        4.275     14893.08    3256891.7   -505084.92    865842.06    360757.14    2839204.4 
   17200          4.3    15287.121    3332990.2   -477314.38    888750.51    411436.13      2823679 
   17300        4.325     15724.05    3401898.3   -451348.83    914152.32    462803.49    2808153.6 
   17400         4.35    16200.959      3473100   -427565.96    941878.49    514312.53    2792628.2 
   17500        4.375    16678.381    3538846.2   -404730.41    969634.45    564904.04    2777102.9 
   17600          4.4     17136.21    3602095.6   -382025.55    996251.38    614225.83    2761577.5 
   17700        4.425    17547.591    3673179.8    -356998.3    1020167.9     663169.6    2746052.1 
   17800         4.45    17877.172    3745671.5   -329581.84    1039328.8    709746.99    2730526.7 
   17900        4.475    18162.621    3817472.4   -300179.24      1055924    755744.79    2715001.3 
   18000          4.5    18454.177    3895576.4   -270696.83    1072874.3    802177.45      2699476 
   18100        4.525    18765.263    3965817.6   -241985.32      1090960    848974.65    2683950.6 
   18200         4.55    19078.726    4041994.3   -212404.12    1109183.8    896779.72    2668425.2 
   18300        4.575    19509.635      4119585   -186424.86    1134235.6    947810.78    2652899.8 
   18400          4.6    20086.015    4183837.4   -166266.12    1167744.8    1001478.7    2637374.4 
   18500        4.625    20672.346      4248383   -145302.24    1201832.5    1056530.2      2621849 
   18600         4.65    21255.952    4310388.5   -124344.12    1235761.6    1111417.5    2606323.7 
   18700        4.675    21780.922    4383468.6   -100971.06    1266281.9    1165310.9    2590798.3 
   18800          4.7    22212.062    4476147.1   -72069.826    1291347.2    1219277.4    2575272.9 
   18900        4.725    22587.179    4605451.9   -40004.489    1313155.5      1273151    2559747.5 
   19000         4.75    22895.651    4726439.7   -4380.2143    1331089.2      1326709    2544222.1 
   19100        4.775    23222.618    4843149.1    28591.653    1350098.1    1378689.8    2528696.7 
   19200          4.8    23583.532    4982225.1     59498.05    1371080.7    1430578.7    2513171.4 
   19300        4.825    23976.458    5106168.1    87233.631    1393924.3    1481157.9      2497646 
   19400         4.85    24296.173    5254088.7    118212.23    1412511.6    1530723.8    2482120.6 
   19500        4.875    24613.054    5404011.1    149090.99    1430934.2    1580025.2    2466595.2 
   19600          4.9    24771.976    5569169.9    187125.11    1440173.5    1627298.6    2451069.8 
   19700        4.925    24766.332    5744628.3    233735.29    1439845.3    1673580.6    2435544.5 
   19800         4.95     24583.56      5933561    288982.49    1429219.5      1718202    2420019.1 
   19900        4.975     24304.78    6145689.9    349841.53      1413012    1762853.5    2404493.7 
   20000            5    23919.515    6344767.5    415155.77    1390613.7    1805769.5    2388968.3 
   20100        5.025    23453.621    6541437.3    485093.54      1363528    1848621.5    2373442.9 
   20200         5.05    22931.137    6718848.4    556837.26    1333152.3    1889989.5    2357917.5 
   20300        5.075    22378.399    6887666.1    630946.83    1301017.6    1931964.4    2342392.2 
   20400          5.1    21773.311    7052133.1    707510.95    1265839.5    1973350.4    2326866.8 
   20500        5.125    21209.421      7218286    783373.52    1233056.5      2016430    2311341.4 
   20600         5.15    20656.179    7394774.5    859881.74    1200892.5    2060774.3      2295816 
   20700        5.175    20253.928    7564370.5    928702.68    1177506.8    2106209.5    2280290.6 
   20800          5.2     19898.73    7743261.6     995934.2    1156856.6    2152790.8    2264765.2 
   20900        5.225    19570.941    7895296.4    1060893.1    1137799.8    2198692.9    2249239.9 
   21000         5.25    19231.497      8054785      1126780    1118065.5    2244845.6    2233714.5 
   21100        5.275    18903.453    8216997.7    1192719.6    1098993.9    2291713.6    2218189.1 
   21200          5.3    18531.848    8364415.7    1260504.7    1077389.9    2337894.6    2202663.7 
   21300        5.325    18144.033      8512056    1329872.7    1054843.4      2384716    2187138.3 
   21400         5.35    17750.711    8665454.7    1400717.7    1031976.8    2432694.4      2171613 
   21500        5.375    17305.366    8830945.5    1473146.4    1006085.6      2479232    2156087.6 
   21600          5.4    16875.912    8998218.8    1545308.6     981118.4      2526427    2140562.2 
   21700        5.425    16405.447    9186603.9    1620673.3    953766.85    2574440.2    2125036.8 
   21800         5.45    15836.659    9361756.2    1700259.6    920699.11    2620958.7    2109511.4 
   21900        5.475    15376.939      9576881    1775755.3    893972.26    2669727.6      2093986 
   22000          5.5    14954.864    9766430.3    1851276.1    869434.02    2720710.1    2078460.7 
   22100        5.525    14688.354    9972995.7    1923645.8    853939.88    2777585.7    2062935.3 
   22200         5.55    14546.143     10209535    1995734.8    845672.14    2841406.9    2047409.9 
   22300        5.575    14484.688     10421617    2066090.6    842099.27    2908189.8    2031884.5 
   22400          5.6    14401.142     10641860    2137696.7    837242.19    2974938.9    2016359.1 
   22500        5.625    14384.433     10866592    2208919.1    836270.75    3045189.9    2000833.7 
   22600         5.65     14322.95     11098931    2295345.6    832696.31    3128041.9    1985308.4 
   22700        5.675    14461.404     11390806    2392004.2    840745.62    3232749.8      1969783 
   22800          5.7    14545.535     11699237    2515050.6    845636.75    3360687.3    1954257.6 
   22900        5.725    14931.632     12029248    2648794.3    868083.36    3516877.6    1938732.2 
   23000         5.75        15861     12413783    2786858.5    922114.23    3708972.7    1923206.8 
   23100        5.775    16569.495     12822074    2931900.3    963304.12    3895204.4    1907681.4 
   23200          5.8    17188.873     13220944    3081559.8    999313.03    4080872.8    1892156.1 
   23300        5.825    18075.987     13650867    3236664.6    1050887.4    4287551.9    1876630.7 
   23400         5.85    18980.837     14070312    3386017.5    1103492.9    4489510.4    1861105.3 
   23500        5.875    19881.215     14481010    3533144.8    1155838.3    4688983.1    1845579.9 
   23600          5.9    20947.647     14903970    3675702.6    1217837.7    4893540.2    1830054.5 
   23700        5.925    22042.703     15291314    3813877.5    1281501.1    5095378.7    1814529.2 
   23800         5.95    23173.421     15708011    3951559.4    1347237.9    5298797.4    1799003.8 
   23900        5.975    24364.726     16128831    4089661.8    1416497.1      5506159    1783478.4 
   24000            6    25450.878     16563294    4231585.2    1479642.9    5711228.1      1767953 
   24100        6.025    26450.984     17009119    4376070.5    1537786.3    5913856.8    1752427.6 
   24200         6.05    27337.275     17469956    4522519.1    1589312.8    6111831.9    1736902.2 
