LAMMPS data file via MDAnalysis

       45000  atoms
           0  bonds
           0  angles
           0  dihedrals
           0  impropers

           2  atom types
           0  bond types
           0  angle types
           0  dihedral types
           0  improper types

0.000000 100.000000 xlo xhi
0.000000 100.000000 ylo yhi
0.000000 135.871674 zlo zhi


Masses

1 26.982000
2 15.999000

Atoms

1 0 1 71.162422 81.275383 112.607925
2 0 1 86.033218 62.939945 126.246811
3 0 1 78.233696 20.029650 129.433441
4 0 1 68.344765 62.666859 133.001373
5 0 1 68.250999 99.297318 113.100143
6 0 1 81.311394 84.875443 116.159882
7 0 1 89.218887 5.015980 125.885330
8 0 1 58.309601 92.315178 127.185226
9 0 1 78.960800 85.344185 114.755051
10 0 1 70.764259 6.837723 124.071609
11 0 1 84.118240 91.587791 112.188263
12 0 1 73.955276 71.705757 125.765335
13 0 1 59.035748 93.781013 107.672729
14 0 1 92.008797 49.317886 120.960068
15 0 1 88.575386 89.279755 110.255585
16 0 1 82.380280 85.037766 132.840652
17 0 1 1.569589 76.648399 124.590546
18 0 1 86.813927 91.695618 111.280685
19 0 1 78.270630 81.971687 128.023209
20 0 1 82.940155 82.001122 115.113983
21 0 1 98.696098 84.660889 114.477005
22 0 1 25.813429 92.266579 126.350922
23 0 1 70.919357 84.157242 119.236099
24 0 1 90.044807 94.836052 112.047195
25 0 1 83.905434 64.822052 123.190994
26 0 1 89.956970 71.530319 108.574341
27 0 1 97.225616 21.782625 128.632584
28 0 1 73.829041 0.920930 111.611984
29 0 1 82.746017 98.947937 112.297424
30 0 1 54.292809 7.059887 131.638367
31 0 1 64.042496 93.634338 107.696274
32 0 1 58.095448 98.817924 133.104187
33 0 1 84.930984 89.929085 116.958282
34 0 1 44.722271 73.034607 127.556824
35 0 1 24.834358 59.108120 129.175247
36 0 1 60.724968 66.260223 126.124985
37 0 1 85.441086 88.689270 111.297714
38 0 1 83.516708 94.407745 112.926193
39 0 1 88.875702 93.520828 115.699844
40 0 1 4.059277 89.956398 118.134201
41 0 1 85.765831 23.021492 129.868683
42 0 1 70.365654 5.527488 114.090790
43 0 1 87.203461 91.884598 113.969345
44 0 1 93.523598 92.507401 114.061417
45 0 1 87.506531 90.722427 116.752747
46 0 1 18.714907 21.788286 124.569916
47 0 1 90.117218 91.410278 112.039078
48 0 1 97.183052 1.919262 114.741379
49 0 1 88.289124 96.048683 121.570129
50 0 1 96.346817 92.885803 113.095398
51 0 1 90.236717 76.593010 125.157120
52 0 1 75.173042 21.257380 118.124100
53 0 1 55.696106 95.358421 120.601013
54 0 1 72.012703 3.360144 112.427841
55 0 1 69.896721 96.966637 112.876892
56 0 1 62.053562 33.324886 129.758621
57 0 1 83.655548 6.784147 110.842606
58 0 1 78.290199 3.903469 113.258270
59 0 1 3.804689 85.364525 117.909500
60 0 1 71.068481 8.222576 115.184204
61 0 1 80.124138 97.839058 111.474487
62 0 1 43.518280 82.575439 121.461517
63 0 1 62.054096 8.045686 120.278564
64 0 1 85.555328 96.125992 112.876755
65 0 1 84.735847 18.614222 130.403259
66 0 1 7.979252 3.220117 123.917084
67 0 1 54.648373 8.880746 122.435074
68 0 1 73.883766 98.252640 113.200775
69 0 1 53.333176 87.770393 130.418289
70 0 1 90.832130 22.671967 126.300125
71 0 1 2.841703 99.472031 127.346085
72 0 1 22.329647 19.165180 128.405548
73 0 1 97.674728 3.775185 111.901611
74 0 1 94.055794 4.457450 112.423294
75 0 1 1.765211 99.653717 131.876694
76 0 1 4.249661 62.545128 118.933395
77 0 1 97.270485 99.611038 111.925491
78 0 1 5.295086 5.932091 131.592911
79 0 1 91.396851 23.614023 116.705750
80 0 1 77.638809 56.738583 127.513992
81 0 1 68.808945 2.110800 111.534943
82 0 1 90.753754 85.389977 121.840302
83 0 1 63.107758 76.710022 130.555771
84 0 1 58.859711 95.992599 133.333649
85 0 1 61.760319 11.315066 113.277145
86 0 1 67.658333 17.175535 129.136353
87 0 1 80.287247 5.461847 113.033005
88 0 1 80.984062 7.995324 112.840164
89 0 1 56.637386 20.061852 128.127487
90 0 1 75.478088 38.742882 131.709518
91 0 1 80.464340 1.537361 112.735123
92 0 1 83.300972 7.406332 114.019653
93 0 1 92.635323 1.777102 112.764862
94 0 1 93.808716 2.827232 130.498962
95 0 1 86.002266 94.476646 117.576172
96 0 1 61.774601 30.575838 121.116959
97 0 1 98.429276 17.286425 118.995331
98 0 1 58.055561 82.781212 131.986053
99 0 1 95.678230 1.620261 112.369278
100 0 1 68.399658 1.935318 124.787857
101 0 1 62.069046 92.647705 132.877136
102 0 1 7.107093 26.737932 116.616547
103 0 1 11.925612 89.193085 123.135056
104 0 1 54.611786 56.947681 124.184494
105 0 1 63.568748 2.756083 111.542557
106 0 1 65.897591 1.338700 112.790115
107 0 1 89.065773 64.005882 126.103882
108 0 1 8.460114 19.139624 126.982727
109 0 1 67.479935 4.106811 112.976868
110 0 1 75.404243 8.141787 113.153336
111 0 1 86.883575 60.127113 125.762054
112 0 1 50.629181 77.486603 123.153549
113 0 1 67.843262 38.608269 119.773804
114 0 1 83.471718 95.055634 118.789551
115 0 1 78.498795 8.473531 111.818848
116 0 1 54.668793 28.173296 113.208160
117 0 1 81.134613 6.523076 115.593018
118 0 1 83.874146 19.871868 115.115082
119 0 1 83.026306 86.294693 120.668488
120 0 1 78.645737 7.395039 117.047501
121 0 1 87.195099 80.883720 118.193298
122 0 1 86.035187 4.809136 114.116562
123 0 1 81.146133 28.432512 133.009094
124 0 1 98.959389 6.340957 116.256317
125 0 1 82.891167 12.705371 126.262833
126 0 1 62.882626 42.820850 119.940308
127 0 1 95.405243 4.574439 115.749512
128 0 1 7.710931 86.502159 130.380951
129 0 1 99.320091 0.119354 115.780350
130 0 1 8.318132 96.222267 122.726196
131 0 1 32.334343 15.721330 126.803299
132 0 1 67.181259 11.880751 112.209076
133 0 1 4.925557 1.146752 120.959518
134 0 1 93.924057 13.073176 117.481888
135 0 1 61.336342 14.960343 127.167206
136 0 1 79.982056 10.363793 113.362946
137 0 1 62.446499 32.319405 125.895828
138 0 1 39.054920 4.533632 125.194153
139 0 1 85.245117 30.612703 123.318222
140 0 1 76.856384 17.750013 128.423538
141 0 1 83.146858 9.800740 116.690384
142 0 1 80.057785 55.642338 127.403976
143 0 1 81.785957 1.832594 115.068726
144 0 1 86.531662 7.637053 115.753052
145 0 1 84.292488 5.286445 115.854126
146 0 1 89.966667 26.305649 129.700394
147 0 1 23.358068 97.449974 123.126221
148 0 1 99.522377 91.162621 113.162460
149 0 1 93.973450 6.531864 114.590210
150 0 1 76.558121 24.568499 113.969955
151 0 1 88.058281 96.815262 114.588943
152 0 1 97.968742 13.217201 109.835480
153 0 1 93.394859 10.634114 124.115219
154 0 1 96.399025 7.848642 115.896667
155 0 1 80.884201 12.409356 123.897736
156 0 1 82.296806 19.269157 110.740845
157 0 1 78.125801 15.880652 113.903366
158 0 1 83.105576 54.381001 128.046005
159 0 1 79.276329 12.736830 115.042984
160 0 1 86.231888 31.516676 115.396133
161 0 1 79.857079 14.550407 112.197586
162 0 1 96.175049 24.146488 123.470596
163 0 1 87.896484 8.342772 117.989044
164 0 1 3.718764 35.670303 126.494965
165 0 1 84.991745 9.539798 114.771194
166 0 1 79.419685 32.225414 123.774857
167 0 1 55.296997 0.614439 118.929138
168 0 1 76.761253 97.673279 124.446381
169 0 1 91.701530 4.713130 113.267624
170 0 1 52.902565 75.702255 126.514526
171 0 1 73.107635 87.793274 132.272736
172 0 1 90.146248 64.953598 114.566940
173 0 1 0.214574 19.467314 118.682175
174 0 1 60.516476 65.152847 120.614670
175 0 1 85.228081 1.822349 110.336929
176 0 1 74.933975 28.799534 120.342453
177 0 1 96.506386 92.580185 116.030396
178 0 1 8.085039 6.076392 123.373215
179 0 1 95.846771 64.002388 117.257782
180 0 1 15.039600 74.164917 128.804184
181 0 1 33.145203 2.973093 122.092621
182 0 1 70.856255 90.115967 122.940720
183 0 1 66.546440 60.699444 126.047134
184 0 1 84.434258 97.157967 110.256851
185 0 1 81.602203 98.480743 109.544189
186 0 1 60.409744 95.956551 126.901688
187 0 1 62.824490 0.095317 125.183380
188 0 1 8.891392 12.511970 119.168060
189 0 1 70.889397 16.456940 120.042816
190 0 1 31.049612 2.169528 130.861160
191 0 1 0.126918 72.509445 127.568970
192 0 1 76.468643 65.064293 125.660950
193 0 1 83.544182 85.454010 117.855637
194 0 1 3.931886 96.979424 130.963470
195 0 1 19.946634 69.421623 122.162872
196 0 1 2.081080 90.009399 113.185959
197 0 1 53.090416 3.158297 114.150665
198 0 1 95.170570 88.747238 132.261398
199 0 1 90.427383 87.870728 120.469803
200 0 1 61.718723 2.082096 129.323624
201 0 1 66.208817 94.565842 119.569962
202 0 1 50.973103 14.673908 122.725876
203 0 1 95.000977 26.663582 117.471054
204 0 1 86.792892 98.208855 112.124832
205 0 1 89.147766 99.451469 113.813858
206 0 1 10.640571 39.192451 122.658752
207 0 1 81.149078 92.960556 111.847076
208 0 1 82.367538 20.637995 119.384338
209 0 1 81.443916 6.884626 120.636261
210 0 1 78.616325 83.578102 117.212067
211 0 1 57.243286 7.323237 109.088104
212 0 1 56.021564 89.884598 125.568176
213 0 1 12.294557 9.461271 131.245758
214 0 1 12.672069 89.602066 125.778976
215 0 1 13.253720 96.242615 127.570099
216 0 1 99.426079 78.630783 120.990860
217 0 1 94.021378 91.163429 117.322861
218 0 1 23.892439 2.162955 128.932480
219 0 1 78.839363 73.211662 132.147583
220 0 1 36.133575 4.295208 128.952591
221 0 1 33.199299 85.652046 125.993912
222 0 1 76.219948 8.045738 126.403412
223 0 1 66.623611 95.827805 130.786499
224 0 1 75.701889 1.091005 113.642365
225 0 1 79.263588 90.305275 129.266983
226 0 1 81.471184 90.477432 127.714432
227 0 1 78.881180 30.951025 113.743347
228 0 1 79.404045 89.932716 112.392975
229 0 1 86.929115 22.217592 116.463486
230 0 1 58.769375 94.036301 104.952637
231 0 1 80.330376 95.709213 112.625580
232 0 1 76.315285 88.211357 111.609131
233 0 1 5.580281 4.461287 128.469131
234 0 1 8.999416 6.290765 113.167770
235 0 1 92.787552 1.035833 118.015198
236 0 1 93.865227 95.770706 110.283386
237 0 1 94.042503 97.381287 124.739471
238 0 1 84.076904 68.040771 121.179031
239 0 1 75.259941 89.611168 107.903244
240 0 1 87.696587 87.742218 125.079315
241 0 1 58.514576 0.768536 125.897964
242 0 1 36.811943 16.612259 125.267456
243 0 1 70.290352 32.083591 132.020081
244 0 1 91.597282 79.406036 131.779068
245 0 1 86.884354 1.387914 113.915192
246 0 1 0.614290 75.961800 121.173172
247 0 1 84.321922 0.850606 113.276733
248 0 1 67.131897 99.301163 124.444778
249 0 1 59.361328 14.579277 120.174744
250 0 1 64.370712 3.187729 116.841446
251 0 1 60.161304 15.447030 116.428406
252 0 1 70.341507 87.396759 125.733261
253 0 1 97.985092 8.214047 118.301483
254 0 1 72.270027 98.044044 110.395828
255 0 1 75.407570 4.649551 113.121613
256 0 1 10.763982 75.343307 125.300354
257 0 1 85.540070 18.447567 120.187744
258 0 1 81.451721 5.302713 118.292679
259 0 1 52.739670 1.567580 118.469284
260 0 1 72.002235 21.957134 122.007111
261 0 1 91.052361 0.674956 120.393585
262 0 1 1.494158 96.602768 123.960587
263 0 1 42.464493 84.629425 132.926605
264 0 1 63.773819 95.774826 120.242966
265 0 1 88.272408 5.802207 117.425064
266 0 1 70.416969 81.501381 119.726776
267 0 1 88.483482 31.041941 131.478287
268 0 1 61.881001 21.201130 130.000031
269 0 1 7.539497 96.288109 131.356323
270 0 1 94.106697 99.080666 111.163940
271 0 1 96.410759 3.131449 124.700439
272 0 1 74.763329 96.106735 131.729111
273 0 1 72.376549 92.542137 122.172379
274 0 1 87.063095 31.168909 127.388641
275 0 1 48.869705 83.894028 121.038681
276 0 1 74.031403 11.118518 122.479889
277 0 1 70.040436 97.744324 128.103745
278 0 1 38.959007 38.374413 131.401184
279 0 1 83.800690 35.162029 122.258209
280 0 1 96.577118 75.372154 116.079880
281 0 1 74.128952 26.743008 124.595459
282 0 1 89.951813 2.281250 114.263611
283 0 1 97.306053 75.527634 125.135788
284 0 1 43.453152 8.781301 111.881607
285 0 1 78.585220 54.605423 123.499985
286 0 1 70.752998 19.425053 120.572128
287 0 1 66.066246 87.907043 132.462982
288 0 1 72.474312 93.183090 113.897217
289 0 1 1.525586 92.766747 119.210648
290 0 1 87.622139 13.753980 132.242081
291 0 1 50.704842 11.704767 121.428558
292 0 1 98.609337 22.735723 117.399078
293 0 1 62.193352 77.821007 119.014069
294 0 1 42.220333 22.353798 127.633743
295 0 1 81.216408 57.340973 119.281174
296 0 1 87.262596 21.933876 119.268616
297 0 1 76.061333 72.510139 124.072678
298 0 1 40.477360 22.539011 118.636642
299 0 1 62.927185 97.796700 118.035583
300 0 1 60.199722 56.232487 128.398743
301 0 1 96.828163 7.759567 126.327621
302 0 1 39.334637 15.457845 114.459625
303 0 1 2.448308 31.725536 130.737106
304 0 1 87.163376 28.874462 122.122070
305 0 1 52.324207 89.654648 132.026703
306 0 1 61.420322 94.785446 124.704880
307 0 1 31.192806 22.830814 129.480087
308 0 1 6.100634 20.122913 119.778625
309 0 1 42.575436 34.268456 132.812927
310 0 1 75.373711 87.108849 114.288513
311 0 1 47.041073 93.814651 125.257919
312 0 1 70.777618 74.214622 131.968643
313 0 1 92.258148 13.471017 123.886444
314 0 1 80.431122 85.973564 125.031921
315 0 1 88.040337 5.672059 112.988052
316 0 1 63.447945 36.814316 124.040527
317 0 1 6.031961 29.052431 132.482239
318 0 1 84.479507 1.002781 117.699265
319 0 1 4.799039 20.939991 132.419754
320 0 1 88.214088 38.391434 134.107712
321 0 1 94.205040 9.624103 108.491623
322 0 1 98.540749 29.772642 119.922272
323 0 1 84.680016 53.726212 133.639740
324 0 1 93.672661 14.934227 109.821442
325 0 1 8.166142 49.212723 123.689987
326 0 1 70.606369 34.832413 132.278732
327 0 1 61.206284 3.932841 110.332886
328 0 1 59.432117 16.124184 125.402008
329 0 1 68.667122 14.968081 120.317749
330 0 1 68.422310 5.827158 111.284439
331 0 1 17.824944 4.332278 114.509308
332 0 1 61.069641 2.043061 112.413437
333 0 1 73.333496 28.452129 118.236465
334 0 1 2.174164 26.079618 125.327621
335 0 1 67.750221 98.830124 120.255493
336 0 1 77.887634 0.351234 118.487823
337 0 1 20.549620 4.162315 122.063232
338 0 1 99.056480 27.019211 130.705200
339 0 1 71.559464 77.810638 116.258301
340 0 1 80.179169 95.655273 132.147720
341 0 1 88.839287 76.059563 120.956009
342 0 1 88.607452 0.299403 125.264709
343 0 1 83.931938 59.941475 122.744873
344 0 1 70.215958 79.133850 131.412323
345 0 1 57.389210 23.845554 114.621674
346 0 1 64.921997 9.066335 116.559052
347 0 1 93.425636 18.578878 132.843414
348 0 1 67.920158 91.438370 113.739151
349 0 1 67.624374 53.073845 129.646057
350 0 1 96.378830 87.701805 127.572723
351 0 1 94.769524 50.092125 133.529114
352 0 1 92.635139 43.373257 123.032852
353 0 1 82.134010 65.334816 128.006302
354 0 1 61.351208 97.158691 120.242767
355 0 1 1.624314 43.841049 130.682785
356 0 1 59.983501 79.506073 126.061630
357 0 1 86.189568 82.883812 121.415436
358 0 1 6.067564 87.595673 127.156891
359 0 1 79.101509 52.063602 119.835785
360 0 1 69.474854 22.116348 120.764771
361 0 1 0.971609 92.516640 115.115891
362 0 1 27.138849 75.670303 130.706009
363 0 1 96.961433 84.282173 132.354279
364 0 1 87.807716 83.396729 118.697601
365 0 1 53.361965 1.135132 112.356796
366 0 1 89.941513 33.047161 124.643616
367 0 1 93.394249 93.547508 131.245987
368 0 1 4.182554 79.727325 122.320450
369 0 1 4.055614 3.540124 130.538300
370 0 1 95.310616 81.732887 129.012817
371 0 1 76.590637 8.645453 118.674377
372 0 1 56.126251 80.627678 132.808289
373 0 1 84.473610 49.793938 125.843826
374 0 1 69.467636 84.625603 110.627609
375 0 1 3.823311 81.789169 128.407715
376 0 1 61.048512 8.586132 113.496002
377 0 1 84.370697 92.214058 115.642670
378 0 1 75.278419 88.044899 125.326187
379 0 1 76.456299 1.858131 131.507660
380 0 1 65.539467 7.687053 114.493362
381 0 1 17.252613 69.459946 115.489273
382 0 1 92.602081 5.508568 129.917511
383 0 1 84.469490 95.947838 124.483795
384 0 1 86.814400 92.044815 127.600784
385 0 1 93.805984 3.887309 127.848511
386 0 1 76.160461 25.555826 116.919617
387 0 1 74.150192 6.506297 123.231018
388 0 1 89.071190 87.776588 122.790710
389 0 1 2.024662 80.039536 130.207367
390 0 1 12.953755 75.100128 118.429321
391 0 1 72.876297 95.209961 108.728271
392 0 1 93.660355 9.007401 132.560089
393 0 1 97.672165 23.777233 114.550980
394 0 1 53.120533 59.763836 121.671814
395 0 1 76.877594 5.933963 111.518982
396 0 1 69.193726 7.007721 131.678421
397 0 1 91.356049 98.434433 111.524033
398 0 1 56.210693 5.274611 117.525696
399 0 1 99.562302 94.968811 125.958389
400 0 1 78.355949 80.020638 115.663055
401 0 1 55.421749 99.548805 133.297928
402 0 1 86.685860 94.309433 122.993484
403 0 1 92.494400 0.527136 115.403625
404 0 1 1.908150 37.308483 120.099594
405 0 1 81.924820 84.432739 126.968491
406 0 1 12.292253 45.020107 125.317581
407 0 1 89.799828 67.656189 115.997375
408 0 1 18.769388 91.450905 123.188202
409 0 1 97.315765 72.561455 120.341110
410 0 1 74.281738 9.869026 127.256607
411 0 1 92.112755 68.725098 114.801086
412 0 1 97.322624 29.227936 124.146286
413 0 1 53.135708 13.358121 121.671188
414 0 1 6.880556 89.564240 119.862427
415 0 1 73.699921 40.439117 119.548859
416 0 1 60.858738 94.529442 115.487442
417 0 1 41.532230 8.499939 125.647537
418 0 1 92.249092 8.041157 128.656281
419 0 1 76.143646 78.723076 124.454086
420 0 1 19.052507 96.899399 126.270523
421 0 1 67.001030 72.515251 120.251312
422 0 1 75.592339 97.541428 115.413528
423 0 1 78.958176 27.739601 126.283096
424 0 1 91.920891 87.362144 116.061600
425 0 1 5.113569 13.774724 115.639587
426 0 1 5.243799 18.392391 121.954605
427 0 1 44.491322 94.905472 125.047394
428 0 1 63.963219 15.836351 118.519455
429 0 1 98.238243 29.597639 131.650970
430 0 1 85.550636 9.141030 129.273712
431 0 1 87.513054 3.261549 115.710388
432 0 1 67.064796 11.062754 117.180389
433 0 1 63.924908 6.523383 117.979828
434 0 1 56.677738 80.703804 115.281387
435 0 1 97.659981 87.539803 114.728867
436 0 1 5.627658 91.987976 119.526382
437 0 1 90.302292 89.740822 132.779861
438 0 1 94.759445 1.846105 115.921249
439 0 1 96.397896 12.393312 118.784363
440 0 1 55.941780 85.982056 121.833008
441 0 1 96.143730 84.265663 129.448410
442 0 1 68.885490 38.516392 117.273239
443 0 1 80.397606 36.187550 126.462769
444 0 1 81.028030 94.460144 118.019470
445 0 1 72.999283 0.239445 127.837036
446 0 1 60.760384 88.719673 130.487411
447 0 1 25.869692 84.672050 127.768402
448 0 1 72.075607 28.429031 129.329178
449 0 1 72.394951 4.728878 122.395004
450 0 1 98.130554 93.389946 133.148392
451 0 1 86.310883 23.693958 124.176895
452 0 1 90.391083 81.170929 116.068420
453 0 1 54.382843 17.215822 132.210342
454 0 1 89.150681 10.889729 122.979233
455 0 1 97.998100 89.003548 131.651474
456 0 1 69.751831 14.687448 125.860062
457 0 1 95.388870 5.106353 129.793625
458 0 1 77.809052 36.433811 124.514694
459 0 1 55.148407 83.708687 128.122208
460 0 1 80.908516 83.333405 124.320999
461 0 1 91.685287 73.004784 109.225372
462 0 1 76.792580 89.176117 127.769516
463 0 1 85.300880 47.178802 109.112869
464 0 1 82.485916 24.721746 127.299698
465 0 1 78.824272 1.314866 115.167816
466 0 1 69.753670 82.847824 122.003647
467 0 1 26.392540 13.878819 121.397049
468 0 1 74.292648 89.553329 117.576828
469 0 1 96.951698 94.776573 127.230469
470 0 1 6.366656 12.712390 117.903152
471 0 1 82.906242 16.086803 116.715515
472 0 1 65.824905 20.388287 117.680389
473 0 1 4.145023 32.748547 125.694839
474 0 1 5.868046 25.540771 121.352203
475 0 1 49.962399 11.867321 114.846771
476 0 1 88.764191 4.557615 119.841156
477 0 1 51.869781 70.965195 115.851028
478 0 1 37.863461 62.047062 125.031815
479 0 1 88.368431 85.373039 120.873627
480 0 1 72.960327 19.953688 117.152618
481 0 1 73.128464 99.625084 120.420639
482 0 1 2.124233 90.661270 132.360336
483 0 1 86.545425 0.631730 130.562744
484 0 1 11.589188 44.820969 130.033417
485 0 1 74.548164 0.726641 133.217331
486 0 1 97.229668 79.272408 122.788528
487 0 1 92.541374 7.439884 125.994965
488 0 1 94.635437 14.579168 122.348099
489 0 1 99.203400 42.736843 132.040451
490 0 1 98.814018 87.683945 126.121536
491 0 1 7.921211 5.057622 126.724991
492 0 1 5.459574 68.892944 131.026398
493 0 1 78.414017 46.329407 126.504486
494 0 1 92.118294 20.036835 130.805954
495 0 1 69.337631 95.023415 124.213791
496 0 1 28.921593 29.078207 123.541962
497 0 1 91.216446 89.677567 122.753311
498 0 1 56.832302 32.330936 126.907211
499 0 1 57.045174 2.941971 118.131332
500 0 1 2.669231 6.739024 118.669296
501 0 1 43.930237 14.165387 120.708160
502 0 1 93.725365 11.251523 115.396347
503 0 1 43.651821 22.235304 129.890335
504 0 1 7.897129 98.065605 129.391754
505 0 1 80.846603 84.789886 119.317429
506 0 1 10.175276 23.840757 123.504013
507 0 1 54.623985 44.587139 132.328140
508 0 1 58.349033 65.340782 129.604050
509 0 1 55.935314 96.362450 126.917969
510 0 1 86.004387 77.727364 133.176666
511 0 1 94.475624 33.755161 125.449142
512 0 1 72.274223 38.041649 120.653519
513 0 1 65.904266 80.401932 118.130280
514 0 1 74.634293 62.961102 129.754608
515 0 1 50.398624 70.655029 130.852737
516 0 1 48.616611 94.661591 129.726349
517 0 1 83.279678 97.955635 119.096115
518 0 1 90.287285 70.275368 121.777222
519 0 1 82.566444 88.916908 121.142700
520 0 1 69.162453 95.745331 130.056717
521 0 1 48.514694 19.959053 123.152130
522 0 1 95.774124 14.485793 128.086929
523 0 1 5.924874 81.576408 115.099625
524 0 1 75.690987 64.753265 118.874573
525 0 1 93.717407 95.235992 113.335617
526 0 1 86.762054 40.716312 128.815491
527 0 1 72.615692 80.003311 120.374771
528 0 1 17.650904 2.259027 116.388992
529 0 1 28.504303 68.104713 118.851547
530 0 1 83.748657 97.740120 126.415909
531 0 1 80.734016 58.377872 123.287598
532 0 1 93.155212 15.117936 127.146591
533 0 1 86.811951 94.284462 120.120483
534 0 1 54.011135 94.117661 114.643478
535 0 1 68.276688 94.122719 114.424774
536 0 1 56.246273 9.119466 119.657684
537 0 1 38.633636 26.095219 124.916321
538 0 1 1.492322 76.349541 130.461304
539 0 1 40.702190 32.113667 132.504364
540 0 1 55.011929 23.341206 121.216492
541 0 1 58.029438 95.452095 128.883392
542 0 1 97.316643 0.903598 133.024933
543 0 1 1.396231 21.907536 119.597656
544 0 1 91.027840 88.821907 130.181839
545 0 1 46.103210 0.234510 116.516678
546 0 1 98.240677 10.418611 116.743042
547 0 1 22.120506 68.648201 117.365601
548 0 1 16.146030 95.810883 127.344803
549 0 1 69.055275 16.921618 124.646378
550 0 1 78.155304 73.159065 119.825256
551 0 1 0.376258 9.292235 118.062149
552 0 1 77.806091 84.228661 119.832199
553 0 1 5.108457 71.076263 113.273651
554 0 1 94.503807 5.346106 125.285217
555 0 1 22.073275 86.132790 124.499832
556 0 1 63.183075 81.249283 122.142120
557 0 1 7.297253 86.442184 123.366806
558 0 1 91.686081 76.796440 129.559830
559 0 1 10.165331 72.124962 114.219696
560 0 1 90.728760 91.822441 130.542664
561 0 1 85.554031 50.844513 133.030518
562 0 1 70.977112 98.540688 118.772171
563 0 1 66.931747 62.518784 128.077866
564 0 1 75.436234 81.707169 131.964432
565 0 1 61.737862 72.652061 121.013397
566 0 1 84.264084 41.216522 130.377243
567 0 1 72.580025 91.826614 131.583755
568 0 1 73.138062 0.593950 130.687439
569 0 1 76.922012 94.642464 132.962158
570 0 1 39.412785 23.027826 128.936127
571 0 1 68.086151 90.658310 123.408722
572 0 1 74.985489 8.611078 121.627716
573 0 1 87.553978 95.244064 132.095078
574 0 1 72.302277 96.148987 111.981598
575 0 1 71.604568 83.718094 133.077927
576 0 1 91.104294 98.351585 116.115952
577 0 1 77.520035 99.818054 132.924423
578 0 1 8.040731 66.198097 114.364243
579 0 1 67.559006 84.213730 122.577393
580 0 1 24.452600 29.975540 126.505737
581 0 1 80.276283 82.137024 119.273346
582 0 1 78.132500 88.609009 121.384415
583 0 1 94.091621 84.807732 114.109024
584 0 1 92.778595 79.270126 129.169525
585 0 1 25.949471 69.077072 133.288773
586 0 1 90.681496 27.628189 119.382980
587 0 1 85.796288 72.763680 126.751312
588 0 1 80.937798 99.251389 114.241547
589 0 1 6.351822 90.867943 124.576920
590 0 1 94.726730 80.633957 118.065292
591 0 1 86.067551 98.467476 118.135788
592 0 1 78.100121 81.644157 120.785324
593 0 1 89.982353 0.903381 116.979721
594 0 1 71.336166 96.903152 123.438370
595 0 1 83.807976 73.134918 120.178650
596 0 1 84.525024 90.866486 128.440018
597 0 1 16.575602 34.394829 117.346771
598 0 1 76.483994 16.271034 123.930283
599 0 1 6.035886 5.275863 119.602020
600 0 1 82.839989 21.044157 131.320358
601 0 1 91.071236 96.561852 113.735565
602 0 1 73.541969 88.353271 112.550964
603 0 1 65.967178 90.970581 125.096375
604 0 1 97.337570 7.686493 121.023209
605 0 1 72.830048 28.786125 122.289520
606 0 1 88.065247 10.052033 125.237976
607 0 1 91.818481 86.122520 130.811539
608 0 1 15.415496 86.534180 129.046875
609 0 1 5.129900 35.897549 122.216415
610 0 1 78.672874 86.628258 119.222687
611 0 1 94.721054 96.635994 131.673996
612 0 1 64.698410 94.760986 129.191940
613 0 1 68.286758 19.317093 121.888412
614 0 1 54.144730 17.378258 116.758560
615 0 1 73.965157 80.777679 129.902985
616 0 1 84.466110 65.212463 126.239502
617 0 1 6.156371 80.668381 124.307083
618 0 1 63.739010 9.624653 113.985367
619 0 1 87.774643 23.197088 132.157120
620 0 1 53.592140 1.273132 121.220169
621 0 1 68.470840 64.566315 126.969437
622 0 1 42.257133 76.405464 131.563782
623 0 1 93.758980 2.716678 125.117081
624 0 1 90.790268 2.927910 118.501648
625 0 1 35.298870 76.990005 132.744858
626 0 1 13.256701 53.398190 132.251221
627 0 1 86.674187 89.096397 114.292221
628 0 1 87.375961 21.938959 122.590546
629 0 1 7.563664 65.720520 119.151810
630 0 1 60.867794 31.408321 128.024628
631 0 1 81.286385 16.452103 121.266113
632 0 1 77.715302 5.641830 126.451630
633 0 1 15.479323 3.114017 122.135559
634 0 1 82.810883 83.631813 130.636261
635 0 1 20.175806 79.512222 116.988632
636 0 1 66.844437 12.960635 119.451859
637 0 1 94.964958 96.424988 115.881271
638 0 1 80.220718 98.815620 118.883621
639 0 1 95.668335 93.548241 118.663528
640 0 1 47.779442 9.488381 115.417664
641 0 1 76.099304 12.055189 128.287415
642 0 1 88.635422 38.854382 125.202759
643 0 1 10.754145 20.872490 133.784348
644 0 1 77.848907 87.089439 129.264313
645 0 1 67.636452 40.704979 124.725830
646 0 1 80.501526 1.573378 117.568985
647 0 1 11.842217 95.438049 132.001358
648 0 1 85.949669 88.323357 127.381866
649 0 1 84.830833 99.431595 115.517014
650 0 1 8.148551 98.239571 113.694778
651 0 1 84.503723 21.479307 123.389160
652 0 1 98.756424 6.142587 127.978500
653 0 1 50.375702 93.101562 131.673019
654 0 1 99.849213 21.269312 124.951370
655 0 1 80.061203 27.074892 111.510010
656 0 1 39.543938 17.869719 118.990967
657 0 1 95.573044 22.715591 126.666840
658 0 1 89.064270 62.508850 116.482010
659 0 1 91.026772 8.508697 118.465546
660 0 1 93.648758 5.366422 117.731842
661 0 1 87.067917 85.728058 123.550476
662 0 1 69.665810 25.684759 124.378876
663 0 1 5.561636 7.401443 123.880997
664 0 1 52.698612 29.896872 118.144348
665 0 1 47.834496 13.012497 116.522385
666 0 1 81.191299 36.441090 117.465561
667 0 1 60.493507 22.836229 125.559235
668 0 1 83.449821 11.423639 123.574692
669 0 1 79.801399 23.429361 116.377838
670 0 1 83.378647 83.538910 120.361877
671 0 1 20.792292 15.001833 131.830612
672 0 1 4.500396 24.777494 118.947922
673 0 1 84.426125 30.389702 133.755493
674 0 1 88.174454 14.819801 115.678360
675 0 1 93.138519 0.006029 124.581421
676 0 1 1.805319 11.025395 119.441071
677 0 1 46.844036 77.551422 132.280258
678 0 1 43.008076 36.062454 129.781265
679 0 1 34.222038 92.495583 126.858078
680 0 1 93.016685 94.943764 123.352417
681 0 1 90.144058 62.895851 128.772568
682 0 1 1.527615 33.708702 126.450287
683 0 1 73.650040 74.079613 126.923889
684 0 1 95.567116 85.310585 126.479080
685 0 1 92.556068 83.759827 120.552368
686 0 1 87.126984 11.583519 130.352310
687 0 1 74.575287 26.650576 129.229614
688 0 1 15.399999 61.316891 126.401474
689 0 1 69.208633 94.992447 127.228302
690 0 1 80.585938 73.796463 129.671265
691 0 1 15.563105 59.860996 129.144287
692 0 1 60.879150 44.636036 123.885605
693 0 1 2.339970 20.602100 126.171661
694 0 1 40.217697 89.088562 133.302460
695 0 1 82.764473 15.411077 126.589035
696 0 1 88.162125 71.870354 117.661743
697 0 1 95.095047 77.247879 133.973663
698 0 1 70.316879 61.196346 131.809280
699 0 1 89.337067 66.930199 125.446182
700 0 1 4.079930 76.816795 129.822037
701 0 1 15.847943 53.226677 116.871719
702 0 1 76.926010 61.648624 130.338638
703 0 1 87.436958 67.313286 129.259918
704 0 1 46.147621 38.997108 121.121689
705 0 1 5.574864 71.174637 129.438568
706 0 1 96.836136 78.903099 119.941559
707 0 1 92.236107 77.638954 133.927094
708 0 1 83.448059 12.872526 116.290283
709 0 1 22.910727 61.120281 124.556717
710 0 1 96.160675 86.410622 122.102615
711 0 1 72.364983 72.703232 121.215317
712 0 1 97.099518 72.816689 114.685501
713 0 1 70.980164 77.811928 126.161026
714 0 1 95.208931 88.099068 119.993591
715 0 1 2.368554 46.156769 121.801239
716 0 1 60.633129 6.178757 114.462738
717 0 1 2.935791 59.667179 127.982391
718 0 1 58.950752 66.363472 118.550369
719 0 1 88.924469 89.420120 118.636658
720 0 1 79.901237 21.707235 118.701477
721 0 1 29.940029 45.319279 117.402863
722 0 1 15.257011 63.617352 121.231049
723 0 1 92.765152 69.985222 126.218460
724 0 1 14.970542 20.114885 126.973099
725 0 1 71.352821 74.197586 118.906433
726 0 1 1.233393 96.923729 110.975769
727 0 1 14.131266 60.574276 121.302277
728 0 1 87.605324 15.670429 127.565704
729 0 1 12.972807 3.195359 115.594467
730 0 1 28.550406 39.923916 128.516830
731 0 1 17.692551 56.550236 130.795044
732 0 1 62.765606 98.746857 132.589691
733 0 1 75.339722 86.446365 127.462555
734 0 1 92.320183 85.778152 126.016830
735 0 1 64.870132 77.834045 119.595535
736 0 1 2.907624 69.228035 128.922501
737 0 1 81.271126 22.133448 126.500107
738 0 1 66.844238 2.072089 120.210083
739 0 1 77.239830 51.460361 132.608749
740 0 1 69.065063 7.337730 119.360352
741 0 1 21.941975 65.881966 118.903885
742 0 1 89.336670 15.398708 120.761765
743 0 1 25.115696 68.737968 123.309372
744 0 1 13.203925 5.881486 114.955688
745 0 1 13.015979 9.345739 127.216690
746 0 1 60.469959 21.573650 132.305969
747 0 1 29.409775 14.755433 127.077988
748 0 1 79.759285 33.477112 114.307266
749 0 1 73.692818 3.419350 129.102051
750 0 1 87.352325 88.030647 117.013733
751 0 1 13.329352 48.649334 128.567337
752 0 1 2.222780 9.869245 129.266769
753 0 1 10.358054 10.286729 114.946808
754 0 1 22.726448 88.802902 120.384750
755 0 1 54.428082 42.672127 127.009552
756 0 1 90.796280 91.361069 114.584854
757 0 1 97.432541 29.086906 129.117004
758 0 1 99.662117 66.891159 133.553513
759 0 1 72.838158 92.243195 107.952454
760 0 1 48.592766 30.328901 119.980499
761 0 1 63.253712 46.148888 127.014236
762 0 1 85.987045 83.364532 124.252426
763 0 1 95.447289 52.190273 131.586563
764 0 1 81.441864 33.954449 122.795212
765 0 1 21.596823 71.035950 131.942062
766 0 1 88.926590 60.690094 130.696030
767 0 1 64.432350 59.449482 122.349564