LAMMPS data file via MDAnalysis

       19500  atoms
           0  bonds
           0  angles
           0  dihedrals
           0  impropers

           2  atom types
           0  bond types
           0  angle types
           0  dihedral types
           0  improper types

0.000000 100.000000 xlo xhi
0.000000 100.000000 ylo yhi
0.000000 137.163040 zlo zhi


Masses

1 26.982000
2 15.999000

Atoms

1 0 1 12.797602 83.715286 130.788132
2 0 1 7.456000 10.214051 120.466888
3 0 1 23.542372 95.921913 129.313004
4 0 1 10.559590 88.649109 119.144241
5 0 1 19.064875 12.385694 132.763336
6 0 1 6.972378 7.085570 121.349457
7 0 1 19.286222 87.612427 119.934128
8 0 1 12.377320 98.790726 132.956421
9 0 1 3.964542 11.491589 127.009232
10 0 1 25.714384 9.064262 128.680847
11 0 1 25.761713 89.343605 134.814636
12 0 1 26.555153 95.772972 128.313614
13 0 1 23.154655 1.283464 130.928543
14 0 1 13.458528 96.503242 134.116562
15 0 1 96.904167 9.160047 121.072968
16 0 1 9.052645 2.595753 119.860352
17 0 1 5.938267 1.111398 129.834930
18 0 1 25.375648 93.244492 125.261307
19 0 1 3.335394 12.401191 122.684357
20 0 1 24.107538 96.796349 125.302261
21 0 1 11.986032 88.792099 125.040070
22 0 1 13.161348 5.878212 127.794525
23 0 1 25.535946 91.330193 120.824951
24 0 1 19.979015 3.594563 127.387527
25 0 1 31.124739 2.899345 120.630859
26 0 1 21.116076 2.782608 120.287415
27 0 1 0.261273 1.548711 117.683426
28 0 1 84.643417 10.411589 127.940369
29 0 1 25.147247 93.226509 122.633545
30 0 1 97.457230 8.087319 130.611435
31 0 1 24.263712 0.060941 121.212448
32 0 1 12.116327 3.038986 124.385864
33 0 1 29.878901 95.066238 121.685120
34 0 1 13.520719 13.736356 133.978760
35 0 1 28.280794 2.841281 120.441956
36 0 1 18.481039 2.449445 119.081573
37 0 1 33.868362 1.901719 119.914719
38 0 1 29.202026 5.224341 121.061295
39 0 1 21.847984 11.059567 119.395111
40 0 1 24.301519 88.441452 129.923981
41 0 1 0.484103 9.228262 121.050232
42 0 1 10.334253 10.538647 120.928192
43 0 1 2.713704 7.062750 120.732559
44 0 1 15.508060 15.150859 121.948593
45 0 1 8.925539 12.845444 120.688614
46 0 1 7.508708 15.795447 126.759674
47 0 1 11.581064 21.501698 119.528107
48 0 1 3.457290 21.721210 132.387421
49 0 1 29.684778 0.379401 120.741013
50 0 1 15.843621 22.109919 122.979599
51 0 1 16.958637 9.913344 128.937393
52 0 1 20.182301 9.239406 120.668945
53 0 1 2.429435 4.468825 121.388672
54 0 1 90.509789 3.209803 123.883987
55 0 1 12.598894 13.476821 121.513290
56 0 1 10.389498 15.464840 119.496155
57 0 1 14.121104 17.533997 121.574341
58 0 1 10.437718 14.678938 121.970795
59 0 1 9.590567 19.244919 123.150711
60 0 1 11.715238 19.496639 121.505341
61 0 1 13.981794 96.185806 124.875763
62 0 1 15.109956 21.694002 119.494965
63 0 1 22.594847 8.322389 119.752777
64 0 1 27.372828 30.154356 130.470032
65 0 1 31.074385 16.174335 132.324799
66 0 1 6.827986 36.193729 121.559021
67 0 1 7.954399 33.242363 118.644104
68 0 1 85.478752 23.587950 121.106903
69 0 1 7.243068 41.312130 127.286057
70 0 1 9.155643 16.919516 121.823212
71 0 1 5.313079 23.559093 120.383560
72 0 1 12.880858 18.993813 123.921631
73 0 1 4.161199 25.949648 119.376343
74 0 1 31.979752 27.786161 123.865402
75 0 1 6.973660 21.010426 120.385361
76 0 1 16.143742 26.514124 121.141541
77 0 1 13.457127 22.252138 121.691422
78 0 1 17.898041 22.465521 120.484543
79 0 1 4.587312 21.209723 122.093948
80 0 1 96.763519 94.427322 122.130844
81 0 1 19.376110 42.963013 128.964096
82 0 1 3.255219 34.105721 131.571442
83 0 1 24.551840 35.654156 126.877197
84 0 1 6.394444 31.715992 125.298126
85 0 1 4.451422 98.179520 121.497589
86 0 1 9.018288 4.676631 132.418152
87 0 1 91.639107 91.569824 132.676437
88 0 1 94.378891 98.252975 127.569061
89 0 1 99.710602 95.369415 130.493713
90 0 1 11.894904 9.082561 119.406128
91 0 1 20.286875 98.263657 134.533142
92 0 1 8.323869 98.885284 125.119339
93 0 1 18.599157 82.698700 128.280197
94 0 1 14.943558 82.651207 126.252029
95 0 1 16.664551 79.365845 129.509277
96 0 1 8.309081 78.721214 126.874481
97 0 1 21.765932 77.729088 121.203781
98 0 1 13.845937 9.413347 132.619934
99 0 1 18.682749 0.966142 121.693497
100 0 1 26.660023 92.797470 119.107712
101 0 1 29.054396 90.297043 122.979782
102 0 1 23.832882 7.001054 126.939835
103 0 1 15.886397 0.291013 130.230270
104 0 1 23.078609 86.405396 125.025238
105 0 1 15.066864 98.961792 126.152054
106 0 1 23.547895 95.180016 121.266922
107 0 1 10.749601 96.552460 133.835419
108 0 1 6.533337 96.346024 121.887711
109 0 1 20.598593 9.189302 127.513855
110 0 1 43.276699 98.180107 122.592224
111 0 1 5.052402 5.549923 120.092392
112 0 1 14.935095 12.648868 120.431793
113 0 1 3.079518 5.776754 130.957184
114 0 1 4.940000 11.382926 120.703995
115 0 1 22.105572 97.132065 127.369232
116 0 1 21.489002 0.110015 121.241943
117 0 1 12.419311 92.454857 122.370987
118 0 1 93.049149 18.253805 132.587448
119 0 1 7.793005 89.406540 119.432800
120 0 1 11.351715 1.203258 120.969147
121 0 1 23.481436 92.882751 119.728683
122 0 1 98.473259 99.921417 124.099457
123 0 1 15.848203 2.393670 117.736832
124 0 1 28.699135 0.035991 125.088257
125 0 1 7.057396 11.727801 122.752121
126 0 1 99.107895 4.243065 131.868774
127 0 1 29.546288 92.123123 128.461853
128 0 1 29.674822 6.298597 123.563385
129 0 1 33.580723 1.916345 122.619476
130 0 1 25.678085 14.785988 126.682541
131 0 1 15.434396 94.796669 130.451706
132 0 1 24.676453 7.988604 121.666824
133 0 1 25.833244 0.534134 131.500076
134 0 1 10.716377 0.416598 131.594727
135 0 1 19.307844 4.627957 124.241821
136 0 1 33.060699 99.261314 127.635330
137 0 1 0.287850 7.198013 131.375793
138 0 1 5.016176 8.616965 120.153183
139 0 1 98.505363 10.054097 122.926514
140 0 1 99.005768 4.478813 122.331100
141 0 1 4.884197 7.875193 133.033569
142 0 1 89.787544 27.781813 131.728745
143 0 1 5.840055 6.795225 126.585052
144 0 1 82.952774 14.938012 128.793945
145 0 1 8.520365 18.626612 127.195389
146 0 1 23.050991 97.619438 120.041824
147 0 1 12.069575 21.832260 128.561661
148 0 1 5.378076 2.010908 126.886658
149 0 1 0.893523 9.058702 124.066589
150 0 1 12.705345 89.865654 131.615555
151 0 1 23.469501 9.176714 124.341492
152 0 1 10.049230 9.096829 128.830688
153 0 1 27.153543 0.003236 121.236374
154 0 1 27.983664 7.799501 124.938324
155 0 1 31.393566 97.916527 121.928680
156 0 1 25.908718 11.022202 126.691681
157 0 1 15.558940 32.740452 132.665222
158 0 1 34.602810 4.256316 120.510391
159 0 1 31.999388 98.192085 132.001740
160 0 1 30.558432 9.087257 125.420410
161 0 1 14.089007 7.957909 120.787247
162 0 1 33.714310 90.078712 131.285904
163 0 1 96.268036 99.345459 125.923950
164 0 1 10.490327 0.900048 124.288132
165 0 1 87.128563 16.931116 128.200272
166 0 1 2.287433 6.628316 133.442230
167 0 1 7.587899 15.296684 120.247971
168 0 1 8.501782 38.753593 120.383484
169 0 1 14.704826 98.318924 123.257339
170 0 1 4.936973 16.027296 119.688614
171 0 1 2.940128 9.539870 122.139725
172 0 1 15.158312 16.763451 119.300812
173 0 1 8.693301 8.834137 122.548843
174 0 1 3.739385 29.679119 132.578583
175 0 1 25.586414 6.147824 124.687134
176 0 1 8.228329 26.052647 127.146179
177 0 1 4.262600 99.082794 128.250259
178 0 1 13.021931 10.738153 121.322571
179 0 1 18.057720 12.472692 130.025803
180 0 1 16.093214 14.517735 129.519638
181 0 1 22.274364 9.085397 129.720917
182 0 1 7.962566 14.528292 129.294373
183 0 1 15.733690 10.082287 121.821808
184 0 1 16.905306 5.776329 131.561752
185 0 1 17.104218 17.732531 121.718491
186 0 1 20.454758 5.221552 131.638290
187 0 1 20.981003 10.203926 123.666214
188 0 1 23.339777 9.932993 132.306183
189 0 1 3.545047 8.422554 126.820908
190 0 1 90.649216 27.284239 127.632980
191 0 1 17.127506 11.637833 125.023407
192 0 1 91.264389 7.784194 127.039154
193 0 1 92.806747 17.834560 122.486969
194 0 1 94.820190 15.647758 122.224884
195 0 1 97.107368 11.342623 125.297836
196 0 1 90.797462 32.039124 133.251984
197 0 1 11.983911 13.991206 124.052322
198 0 1 3.861519 21.749493 127.666046
199 0 1 18.939619 95.266960 125.187744
200 0 1 5.678983 15.889251 124.459091
201 0 1 13.566064 19.005316 119.001648
202 0 1 11.296696 5.730101 131.411789
203 0 1 23.185553 30.163845 128.154572
204 0 1 0.895070 10.055761 131.261276
205 0 1 25.596859 97.519310 121.250916
206 0 1 99.834656 30.827532 126.619003
207 0 1 7.120405 21.157425 123.605209
208 0 1 20.101051 5.163632 119.272720
209 0 1 5.668730 22.541515 130.192215
210 0 1 2.858110 33.536106 126.898422
211 0 1 33.996960 6.687348 125.009384
212 0 1 33.262192 10.241915 123.518448
213 0 1 24.361292 16.064293 129.227798
214 0 1 16.873646 25.533514 125.106735
215 0 1 96.368828 20.367592 125.239182
216 0 1 96.204544 23.063135 128.233978
217 0 1 0.997065 20.270481 128.665543
218 0 1 99.348007 31.066139 119.594589
219 0 1 99.903656 22.493353 122.417007
220 0 1 99.620590 31.060284 134.592743
221 0 1 8.061549 28.098595 122.742691
222 0 1 20.861702 15.842788 126.183487
223 0 1 7.587134 28.378372 120.190552
224 0 1 4.658735 17.566441 130.157791
225 0 1 5.246816 4.314039 125.552399
226 0 1 90.669014 18.016291 120.412094
227 0 1 7.992742 23.555227 121.250946
228 0 1 99.990128 22.688589 119.631760
229 0 1 3.474356 13.413517 128.889908
230 0 1 11.623132 45.725857 133.044403
231 0 1 10.931685 9.773644 123.874969
232 0 1 16.403219 34.239109 121.358185
233 0 1 2.805144 22.483576 123.676132
234 0 1 10.633727 26.403566 125.925125
235 0 1 1.791668 29.567953 130.599350
236 0 1 11.916741 23.696255 133.675507
237 0 1 7.305984 6.738835 128.895081
238 0 1 7.443042 17.385122 129.478378
239 0 1 1.198898 24.933491 123.255554
240 0 1 6.919152 33.732277 123.442490
241 0 1 91.923813 29.621943 132.294952
242 0 1 2.952338 5.430757 125.863785
243 0 1 5.599795 23.521708 123.178177
244 0 1 91.888344 24.594740 120.308975
245 0 1 98.282738 18.428831 129.316452
246 0 1 3.910805 38.160515 124.552155
247 0 1 17.546291 37.926460 131.150330
248 0 1 30.344912 33.159241 132.758835
249 0 1 4.455166 14.394969 126.405716
250 0 1 7.185378 28.470566 125.501129
251 0 1 9.167349 99.600235 129.347961
252 0 1 10.786837 17.612352 125.646454
253 0 1 27.453493 18.534657 123.862885
254 0 1 7.991835 97.241951 132.887070
255 0 1 89.930672 93.457413 126.064392
256 0 1 12.845764 18.191730 134.746689
257 0 1 13.107319 0.650724 123.021729
258 0 1 0.875130 81.363167 121.938095
259 0 1 31.658903 8.206270 123.064163
260 0 1 7.592214 96.002800 124.668549
261 0 1 9.130836 94.814537 127.524323
262 0 1 17.599392 99.732979 132.817749
263 0 1 17.499144 7.276081 129.246536
264 0 1 8.730426 11.923540 128.403763
265 0 1 91.560196 1.187022 122.202194
266 0 1 9.423552 6.184285 123.422867
267 0 1 4.664099 5.033780 133.428558
268 0 1 6.531258 95.087898 128.358673
269 0 1 13.226480 13.695127 130.000443
270 0 1 12.361299 86.078682 129.405045
271 0 1 27.870888 9.408740 133.244293
272 0 1 23.000925 92.401131 126.345886
273 0 1 34.315750 98.570908 130.041382
274 0 1 20.738148 97.377724 121.459229
275 0 1 29.270233 5.795783 126.698547
276 0 1 36.898819 95.001328 121.696808
277 0 1 31.993273 7.148537 127.139954
278 0 1 5.504000 18.765593 123.593842
279 0 1 20.291409 93.587288 135.099152
280 0 1 8.810418 96.953362 120.163330
281 0 1 86.438530 92.974266 119.489685
282 0 1 95.653267 16.763054 132.804413
283 0 1 8.103839 1.686421 125.582458
284 0 1 9.240483 95.182335 122.165436
285 0 1 95.636177 22.358578 132.873672
286 0 1 1.792792 96.739601 130.798141
287 0 1 77.594337 11.985468 124.527847
288 0 1 1.172294 11.935453 129.051025
289 0 1 28.559221 95.737030 130.812485
290 0 1 16.303740 9.109650 124.193146
291 0 1 98.795898 11.726217 132.599213
292 0 1 11.995099 95.249519 126.738632
293 0 1 16.214972 3.365706 120.511139
294 0 1 9.068070 7.447528 126.339706
295 0 1 17.376802 22.684910 129.355988
296 0 1 17.969820 93.754364 122.839218
297 0 1 16.441408 21.791235 134.256165
298 0 1 10.663842 97.035141 128.659927
299 0 1 8.370245 2.132560 128.290543
300 0 1 14.258730 3.442778 122.822052
301 0 1 25.706762 87.047813 133.603806
302 0 1 6.984830 3.782768 134.343216
303 0 1 12.788149 22.405567 131.370468
304 0 1 18.705280 20.969885 135.661697
305 0 1 38.750660 6.058678 128.818451
306 0 1 89.081200 91.710144 118.719269
307 0 1 19.361841 12.525393 123.800232
308 0 1 1.817070 6.340168 123.330765
309 0 1 8.710217 33.602970 125.583603
310 0 1 96.774902 3.409172 126.953918
311 0 1 17.360344 99.707039 123.929352
312 0 1 95.470612 19.529274 133.234467
313 0 1 0.288892 93.084213 124.215591
314 0 1 15.051394 1.834886 125.024872
315 0 1 89.288849 98.666664 121.531387
316 0 1 0.791350 14.470276 128.011063
317 0 1 4.042260 15.049538 131.081467
318 0 1 6.039405 13.039575 130.334091
319 0 1 3.427936 17.675051 125.301819
320 0 1 11.137976 3.997785 128.817657
321 0 1 13.890651 5.543208 135.251144
322 0 1 0.455574 97.736366 125.274582
323 0 1 8.641975 95.585968 135.080093
324 0 1 10.582757 24.211086 131.182938
325 0 1 25.387646 93.121017 127.981903
326 0 1 12.562345 7.172441 133.208466
327 0 1 14.702375 98.314621 128.920456
328 0 1 8.192863 4.610563 126.877472
329 0 1 99.992119 14.130469 132.800369
330 0 1 29.797865 26.185102 134.555191
331 0 1 13.471226 12.822198 127.445099
332 0 1 3.046507 3.483429 123.749130
333 0 1 1.557007 16.688711 132.216965
334 0 1 94.983307 18.340904 124.008087
335 0 1 89.133347 95.265823 132.218048
336 0 1 4.046626 20.196142 134.587418
337 0 1 13.597863 9.523294 123.576920
338 0 1 12.773685 0.807505 126.024948
339 0 1 2.346367 19.410480 132.385712
340 0 1 99.105980 5.744358 129.341095
341 0 1 16.551439 0.141950 119.497101
342 0 1 12.399940 98.539017 124.507584
343 0 1 8.860800 20.518215 133.186066
344 0 1 14.792171 10.619293 126.373352
345 0 1 22.977560 93.341995 128.885101
346 0 1 14.394785 5.360672 120.971039
347 0 1 5.349210 12.601857 124.757462
348 0 1 18.392235 20.171604 133.264023
349 0 1 3.343353 12.366250 131.474503
350 0 1 16.785252 97.872284 130.684738
351 0 1 14.229720 7.742176 125.855423
352 0 1 29.550245 97.407219 124.147095
353 0 1 43.831711 10.168239 133.337082
354 0 1 43.334095 87.701164 133.838043
355 0 1 30.976637 96.475914 126.533813
356 0 1 38.824722 15.761310 121.031570
357 0 1 54.286572 94.326775 130.575165
358 0 1 11.896703 91.251373 134.110519
359 0 1 18.063478 90.311516 126.943161
360 0 1 94.578423 3.903430 125.579422
361 0 1 95.149658 26.421614 130.105194
362 0 1 7.977328 9.899833 124.890213
363 0 1 1.067967 25.556227 126.289261
364 0 1 92.578110 20.323704 120.866364
365 0 1 9.593235 24.123373 118.937805
366 0 1 6.583018 15.730825 131.588608
367 0 1 3.267757 18.889456 127.842178
368 0 1 12.697997 94.114510 119.893616
369 0 1 8.890298 39.501701 125.973877
370 0 1 23.205605 97.868782 122.932877
371 0 1 6.424829 13.070364 127.517715
372 0 1 96.983948 10.319288 127.946304
373 0 1 7.277711 35.401360 129.283905
374 0 1 18.492756 3.519291 132.091522
375 0 1 25.786438 19.026649 126.698273
376 0 1 15.767532 8.451334 130.888504
377 0 1 27.002197 10.213770 120.873978
378 0 1 98.959877 13.644768 130.306107
379 0 1 24.933064 19.683485 132.273560
380 0 1 16.433891 7.545641 122.129303
381 0 1 20.109177 24.565687 133.262329
382 0 1 18.910706 14.158347 120.913651
383 0 1 18.650963 4.764251 129.462128
384 0 1 1.173559 0.504597 124.456284
385 0 1 80.678146 12.688856 124.244247
386 0 1 91.746384 19.898777 124.237778
387 0 1 98.876793 53.107449 125.947983
388 0 1 97.731598 33.266979 119.430252
389 0 1 1.231496 27.927607 121.593903
390 0 1 14.092250 25.569254 125.427795
391 0 1 21.550280 19.192574 124.890121
392 0 1 84.213715 27.874390 123.202713
393 0 1 9.263248 5.327193 120.746765
394 0 1 13.883368 14.630199 125.632141
395 0 1 97.558228 23.397190 121.307266
396 0 1 3.512568 31.607573 130.379715
397 0 1 9.246104 23.064270 123.572739
398 0 1 10.168827 28.635010 130.635345
399 0 1 32.078899 21.592613 125.646439
400 0 1 18.115269 32.884796 131.729065
401 0 1 16.202238 24.729395 130.930603
402 0 1 18.483418 20.273651 130.468307
403 0 1 7.282495 28.322714 130.193390
404 0 1 28.311127 27.760067 131.375397
405 0 1 8.370604 38.431858 128.428345
406 0 1 16.666880 2.778748 128.613647
407 0 1 20.175814 7.350440 129.519226
408 0 1 16.687075 16.986042 130.357513
409 0 1 17.009560 24.572796 133.992401
410 0 1 5.650104 18.013613 126.686996
411 0 1 13.959630 20.004358 127.614136
412 0 1 13.512011 38.087154 125.238800
413 0 1 5.117823 28.174213 121.300278
414 0 1 5.384142 22.902580 125.812881
415 0 1 14.685378 41.945629 133.604477
416 0 1 16.592266 13.373157 132.139832
417 0 1 1.266703 16.834843 123.321320
418 0 1 11.105266 31.075619 130.374649
419 0 1 16.995001 3.956951 125.894974
420 0 1 20.941494 23.030094 131.214188
421 0 1 29.539173 27.102118 127.776230
422 0 1 22.460995 30.292130 120.455093
423 0 1 92.036240 95.641808 124.635254
424 0 1 99.011887 99.607918 126.800705
425 0 1 13.596669 0.995898 132.129807
426 0 1 96.213127 97.362862 133.495224
427 0 1 10.172371 96.918053 125.817780
428 0 1 6.065275 95.927933 131.472198
429 0 1 97.942467 20.804804 134.301468
430 0 1 94.500183 11.357791 127.750793
431 0 1 7.492922 87.109383 134.598114
432 0 1 7.985784 0.173701 131.850021
433 0 1 1.876369 34.038193 133.975449
434 0 1 90.867218 95.544968 127.862976
435 0 1 23.258089 97.307564 135.035873
436 0 1 9.594651 89.075821 134.851196
437 0 1 20.931883 91.970779 130.604630
438 0 1 96.839539 7.473956 127.942261
439 0 1 15.154484 92.441673 135.382599
440 0 1 16.826666 88.275650 134.104416
441 0 1 2.287006 98.703484 132.749008
442 0 1 13.671282 25.611691 134.440323
443 0 1 28.377995 0.240682 129.725754
444 0 1 13.180438 80.506775 125.461792
445 0 1 16.095650 1.552292 134.407776
446 0 1 12.292521 83.216995 125.171204
447 0 1 33.432343 85.589798 127.387177
448 0 1 26.507330 97.948616 130.297531
449 0 1 79.779831 11.128901 126.377289
450 0 1 5.119113 5.200806 122.846710
451 0 1 93.796089 11.672618 130.364700
452 0 1 1.789850 18.013292 129.890549
453 0 1 99.388603 98.734756 129.640396
454 0 1 90.232384 9.280329 135.542358
455 0 1 83.000969 96.354874 126.808258
456 0 1 8.766337 13.120425 131.266159
457 0 1 18.647348 14.150137 125.949387
458 0 1 88.615349 11.869858 132.422165
459 0 1 17.350935 2.512035 123.485199
460 0 1 10.870966 8.846447 131.459076
461 0 1 2.807052 14.425009 133.486526
462 0 1 10.016856 10.463428 126.550552
463 0 1 32.911945 92.851227 131.848282
464 0 1 92.738609 5.446128 127.057480
465 0 1 20.821730 99.870583 130.339325
466 0 1 12.608722 98.035400 127.143524
467 0 1 31.272083 89.223007 121.449631
468 0 1 2.378262 83.440765 123.222168
469 0 1 31.057373 1.334353 126.536697
470 0 1 24.605673 3.516500 124.271500
471 0 1 17.545122 97.809105 135.279541
472 0 1 26.535519 1.867800 127.296310
473 0 1 23.649200 98.519661 130.192566
474 0 1 12.064359 98.310913 135.765991
475 0 1 4.525837 0.546022 132.108231
476 0 1 3.411532 4.173123 128.436859
477 0 1 89.217125 4.192702 130.958267
478 0 1 96.296242 1.738146 124.797745
479 0 1 99.515915 6.128067 133.849823
480 0 1 11.727549 6.990404 124.538071
481 0 1 10.611136 6.538402 128.955200
482 0 1 86.176308 12.618276 133.628891
483 0 1 9.183061 30.606915 134.577576
484 0 1 97.965897 15.243788 134.677689
485 0 1 4.091068 99.921196 134.798569
486 0 1 0.274550 17.183167 127.573090
487 0 1 6.014400 8.318354 130.503555
488 0 1 13.969088 2.465849 129.884323
489 0 1 99.122818 20.687176 124.194519
490 0 1 5.574106 15.352996 128.643616
491 0 1 90.171608 14.070840 132.371292
492 0 1 3.183043 20.352211 130.012665
493 0 1 18.163649 26.223591 132.212433
494 0 1 20.908697 19.235418 134.820053
495 0 1 19.048910 1.965159 125.333008
496 0 1 1.040505 9.957655 127.009247
497 0 1 18.801435 86.456375 133.726608
498 0 1 19.369253 98.780090 125.821259
499 0 1 8.421478 97.876106 122.733017
500 0 1 18.449926 0.351144 135.469681
501 0 1 89.010017 23.955847 134.643372
502 0 1 90.964661 16.821432 131.355255
503 0 1 86.416382 2.696894 131.844376
504 0 1 15.996737 5.667317 127.559082
505 0 1 1.504191 14.346389 130.617798
506 0 1 95.415237 18.688253 129.877350
507 0 1 9.896364 3.027560 122.697586
508 0 1 89.690842 18.653011 133.448486
509 0 1 12.300943 11.522599 125.158264
510 0 1 97.219719 12.342937 134.942398
511 0 1 9.933590 18.622299 130.237625
512 0 1 0.764198 11.765250 121.966171
513 0 1 19.050924 35.767910 132.711655
514 0 1 8.055806 10.206681 130.689514
515 0 1 13.771151 17.956839 132.146606
516 0 1 18.879560 20.683601 127.898666
517 0 1 24.113762 11.064603 129.736557
518 0 1 11.360806 4.667047 134.033447
519 0 1 18.647467 3.766520 121.540375
520 0 1 14.475580 17.549635 129.006836
521 0 1 16.285524 13.218191 127.168259
522 0 1 9.066026 28.411871 127.772202
523 0 1 0.325642 23.700081 133.884872
524 0 1 18.614910 5.996818 133.703201
525 0 1 31.326422 4.186462 127.546295
526 0 1 18.383738 15.639585 128.090530
527 0 1 92.771591 1.195900 128.972641
528 0 1 11.591920 8.115940 121.946289
529 0 1 98.792763 25.685434 135.663452
530 0 1 9.441212 8.001863 120.071747
531 0 1 13.920414 8.692181 135.107819
532 0 1 8.353837 0.585551 122.740051
533 0 1 99.883766 19.848129 131.067459
534 0 1 6.078371 24.813183 128.755173
535 0 1 16.453718 21.031103 126.948868
536 0 1 30.761614 3.861070 123.002747
537 0 1 97.842415 18.145369 123.727112
538 0 1 13.347844 23.103558 126.555450
539 0 1 97.050026 12.062705 120.577347
540 0 1 5.986348 5.442844 131.120331
541 0 1 13.243362 95.927673 129.167007
542 0 1 1.206980 21.042034 134.427856
543 0 1 11.975080 15.988140 133.078125
544 0 1 31.251774 95.546967 131.309265
545 0 1 34.072685 5.449069 127.820404
546 0 1 39.339523 31.073219 131.818237
547 0 1 15.210147 11.840868 129.320053
548 0 1 9.125829 20.878159 125.234894
549 0 1 40.985962 10.622031 134.030106
550 0 1 28.173368 2.555512 130.779205
551 0 1 39.790195 19.671322 124.350235
552 0 1 37.793396 13.880256 132.094315
553 0 1 96.682404 15.910992 124.663086
554 0 1 9.585814 15.821608 131.148697
555 0 1 6.480245 17.078835 121.869354
556 0 1 86.061447 5.354971 124.189728
557 0 1 99.628265 29.403610 132.403442
558 0 1 20.752928 21.898781 123.901001
559 0 1 5.775347 27.426098 127.805832
560 0 1 4.153783 7.562243 124.254501
561 0 1 2.694159 27.162451 132.099976
562 0 1 19.261324 93.222519 120.363068
563 0 1 8.072781 23.350912 126.326141
564 0 1 7.651356 9.274853 127.720276
565 0 1 9.402757 21.230427 127.993774
566 0 1 12.782031 26.357939 127.606491
567 0 1 13.349490 7.156301 130.400833
568 0 1 25.448059 8.081989 133.212189
569 0 1 9.752370 11.075126 132.976089
570 0 1 17.570238 26.559130 128.524536
571 0 1 20.950518 8.174947 132.035980
572 0 1 8.667246 7.350925 131.109955
573 0 1 38.505245 96.892693 133.262894
574 0 1 14.463778 15.097585 131.787170
575 0 1 11.574336 8.101537 126.876709
576 0 1 9.116416 33.404961 130.138199
577 0 1 11.708529 18.462696 128.225510
578 0 1 44.762012 28.392443 129.694244
579 0 1 88.381592 9.605772 131.092468
580 0 1 15.693419 59.946072 128.820541
581 0 1 92.228424 15.439010 120.600922
582 0 1 10.281730 99.678589 126.886185
583 0 1 99.345703 16.249660 125.109436
584 0 1 95.793686 13.891991 126.751083
585 0 1 7.724015 14.605222 122.928238
586 0 1 99.645256 40.875172 127.940308
587 0 1 23.004007 3.960626 130.731567
588 0 1 14.638983 23.602484 132.978195
589 0 1 22.980951 10.320002 121.941040
590 0 1 18.766043 11.663504 127.435791
591 0 1 27.586153 14.401043 129.045517
592 0 1 5.860863 25.387627 125.987518
593 0 1 6.851258 25.818037 119.095444
594 0 1 13.864771 20.731949 133.487274
595 0 1 7.368212 32.911510 128.007858
596 0 1 26.315342 33.386433 125.813583
597 0 1 16.518475 4.940044 122.899094
598 0 1 14.526616 25.120918 122.820251
599 0 1 13.286156 36.305317 118.724274
600 0 1 5.194921 33.668129 120.678238
601 0 1 94.238159 32.271317 134.717255
602 0 1 8.454538 28.203627 132.925095
603 0 1 9.247338 26.963135 118.652023
604 0 1 1.685781 53.223297 126.755539
605 0 1 4.622500 49.986244 122.353821
606 0 1 95.409668 16.265627 127.974701
607 0 1 12.660250 28.085806 122.657364
608 0 1 2.613913 45.297169 122.168549
609 0 1 12.864665 23.924955 119.513000
610 0 1 18.379063 27.404016 123.301392
611 0 1 14.963762 29.603817 121.307465
612 0 1 1.615944 43.635406 120.261597
613 0 1 93.496193 30.100746 119.285339
614 0 1 4.005387 35.893524 119.645813
615 0 1 89.656631 33.835575 124.398712
616 0 1 4.246937 36.096127 122.745621
617 0 1 1.523637 36.602436 120.885925
618 0 1 13.842234 34.680058 132.199753
619 0 1 6.287025 36.456699 124.247086
620 0 1 11.980947 34.789520 128.077362
621 0 1 23.538233 38.865803 124.143311
622 0 1 15.823436 31.815462 128.074631
623 0 1 13.679689 34.564831 120.987167
624 0 1 10.635719 26.279642 123.223602
625 0 1 3.063156 46.096600 133.661179
626 0 1 97.182213 41.027298 119.338974
627 0 1 99.028343 29.755592 122.175827
628 0 1 1.965065 42.179447 128.496994
629 0 1 14.736460 39.524532 122.102844
630 0 1 99.066467 46.450226 119.073135
631 0 1 15.621058 36.144508 126.060745
632 0 1 94.812782 28.084711 132.490402
633 0 1 24.459288 23.791201 124.856369
634 0 1 96.559967 45.615185 126.651627
635 0 1 19.742752 36.748714 123.633347
636 0 1 22.270859 40.724686 125.977432
637 0 1 17.377541 39.251404 120.773071
638 0 1 97.438782 37.982033 118.327911
639 0 1 99.011650 39.350315 120.167679
640 0 1 0.995103 48.230110 118.204056
641 0 1 2.845755 58.950859 125.900070
642 0 1 94.559288 43.351498 127.942963
643 0 1 20.359100 28.835346 121.559143
644 0 1 26.950718 30.271088 121.048508
645 0 1 15.400717 37.916611 119.526810
646 0 1 1.294856 50.429741 119.668243
647 0 1 15.297803 40.753605 119.561127
648 0 1 33.216022 27.475805 129.303833
649 0 1 25.199968 31.754761 129.509933
650 0 1 7.250779 41.059425 121.363098
651 0 1 95.087791 40.915691 126.851517
652 0 1 8.452545 54.572392 121.925140
653 0 1 1.389792 43.191635 131.574142
654 0 1 3.669646 24.863474 124.657578
655 0 1 20.946453 53.430511 127.531601
656 0 1 20.010988 22.865118 128.562607
657 0 1 12.844918 39.344074 118.962509
658 0 1 15.118930 43.668007 119.351578
659 0 1 1.152491 28.352505 125.928284
660 0 1 18.926123 42.329762 122.720169
661 0 1 29.665377 32.435600 124.554504
662 0 1 17.823023 42.444038 120.036118
663 0 1 27.459827 40.083271 126.859863
664 0 1 98.927650 37.881763 124.215622
665 0 1 13.908685 60.796566 127.052826
666 0 1 12.985850 42.417210 119.565948
667 0 1 19.760330 44.740746 121.176651
668 0 1 4.836173 48.872921 131.977036
669 0 1 21.120762 41.927704 121.126480
670 0 1 2.065501 20.952808 121.191086
671 0 1 18.190557 22.163755 124.828857
672 0 1 20.379116 38.550705 125.716858
673 0 1 2.443039 24.436033 132.181152
674 0 1 4.330676 18.812487 120.941956
675 0 1 3.010358 40.215698 126.615341
676 0 1 10.899580 23.764671 121.489212
677 0 1 21.715015 46.323154 131.864044
678 0 1 17.046665 24.354532 118.863068
679 0 1 14.728600 22.335188 128.946854
680 0 1 34.822056 29.700211 128.146500
681 0 1 15.009142 16.727993 124.137466
682 0 1 13.242159 25.468599 131.708084
683 0 1 0.036924 34.593506 122.006470
684 0 1 9.186434 43.928467 124.482529
685 0 1 2.692197 31.188562 125.686310
686 0 1 14.020358 40.624615 124.539810
687 0 1 1.829936 15.629936 125.993408
688 0 1 5.524003 34.544121 133.567154
689 0 1 97.175034 43.494408 128.332352
690 0 1 0.218355 48.033333 128.201370
691 0 1 5.849757 37.736485 129.364243
692 0 1 8.046507 23.051340 131.948929
693 0 1 94.902390 33.933811 130.765778
694 0 1 9.904368 16.209846 128.153595
695 0 1 10.277835 35.759556 132.519119
696 0 1 17.029186 42.960316 132.383499
697 0 1 99.968422 19.310047 122.009705
698 0 1 92.915649 27.351185 120.443649
699 0 1 9.489882 21.276518 121.322891
700 0 1 27.061930 27.388098 128.811798
701 0 1 8.705086 35.927280 119.548370
702 0 1 18.624275 39.324810 123.369568
703 0 1 15.755941 18.616302 126.131561
704 0 1 19.511433 24.534092 124.714325
705 0 1 30.584227 29.696535 124.969315
706 0 1 12.036901 39.294559 128.985565
707 0 1 31.866417 30.001579 122.274582
708 0 1 25.800671 19.005142 129.672714
709 0 1 11.886862 34.145844 133.964035
710 0 1 16.523926 35.476444 131.843643
711 0 1 7.028182 25.610052 132.792145
712 0 1 97.492699 35.005070 135.298767
713 0 1 17.323755 35.674782 123.770172
714 0 1 13.093032 55.186443 124.651596
715 0 1 25.082239 30.925890 125.213837
716 0 1 97.411041 47.833298 127.758835
717 0 1 5.272884 28.300848 118.314377
718 0 1 94.246124 21.044918 123.334152
719 0 1 4.785701 38.992584 131.533569
720 0 1 90.916580 25.811186 135.952545
721 0 1 4.410940 35.369675 128.403275
722 0 1 96.440063 33.661789 124.200699
723 0 1 99.551796 43.092831 129.647324
724 0 1 18.999901 47.740402 131.144226
725 0 1 5.016622 34.936646 117.205841
726 0 1 14.825093 48.042377 128.720688
727 0 1 18.919641 44.980118 130.667969
728 0 1 14.467997 32.290394 122.576935
729 0 1 17.429171 34.164555 127.089264
730 0 1 20.586943 29.670496 129.003143
731 0 1 19.803314 30.761721 131.307480
732 0 1 28.833637 39.629013 129.383865
733 0 1 30.025238 29.205677 120.458710
734 0 1 26.341385 29.062492 123.699661
735 0 1 1.497712 45.624172 127.661560
736 0 1 11.209200 45.149494 126.518661
737 0 1 97.806435 41.936272 126.042450
738 0 1 0.214813 45.773777 132.923599
739 0 1 3.128696 38.879845 119.461594
740 0 1 98.500984 49.166546 119.241089
741 0 1 21.733509 37.977921 133.263107
742 0 1 86.456650 22.292122 134.830841
743 0 1 11.780336 47.737648 129.720261
744 0 1 99.384109 27.200918 123.722076
745 0 1 2.308190 23.681805 120.908340
746 0 1 94.601357 38.574448 128.728088
747 0 1 93.152428 41.726791 119.479843
748 0 1 17.083429 33.040104 123.783218
749 0 1 26.437733 34.666656 123.161713
750 0 1 95.909622 40.955593 132.037811
751 0 1 0.689231 31.846653 121.974274
752 0 1 16.617115 36.472225 128.676331
753 0 1 10.282862 21.529249 130.661942
754 0 1 32.739056 37.983448 122.230301
755 0 1 0.380369 32.660183 131.007004
756 0 1 22.075281 45.447792 125.111984
757 0 1 39.002110 46.582405 130.567932
758 0 1 6.883283 44.536346 133.032608
759 0 1 17.898764 37.352669 126.064835
760 0 1 29.113049 24.525932 122.605621
761 0 1 94.709373 36.190784 134.815964
762 0 1 0.089525 43.637184 126.796570
763 0 1 94.410637 38.364338 125.647278
764 0 1 13.286478 45.525196 121.711273
765 0 1 0.320617 46.797958 123.477356
766 0 1 14.594036 43.301010 128.700195
767 0 1 91.281700 39.821938 135.147049
768 0 1 85.387474 52.131531 126.889069
769 0 1 1.495116 31.717598 128.511841
770 0 1 10.431270 47.314667 121.456833
771 0 1 23.383190 28.875851 124.927460
772 0 1 6.962193 50.277203 128.347137