LAMMPS data file via MDAnalysis

       23500  atoms
           0  bonds
           0  angles
           0  dihedrals
           0  impropers

           2  atom types
           0  bond types
           0  angle types
           0  dihedral types
           0  improper types

0.000000 100.000000 xlo xhi
0.000000 100.000000 ylo yhi
0.000000 129.214951 zlo zhi


Masses

1 26.982000
2 15.999000

Atoms

1 0 1 32.909241 78.774521 121.781525
2 0 1 10.856875 4.603036 109.669006
3 0 1 98.896873 84.286011 114.837616
4 0 1 18.421682 82.610611 109.572708
5 0 1 27.032610 5.799462 115.595276
6 0 1 90.471092 84.033012 117.893265
7 0 1 7.639474 71.731079 116.334869
8 0 1 23.795778 70.297630 113.845016
9 0 1 19.964399 83.898659 124.578644
10 0 1 9.420072 21.814455 108.130905
11 0 1 27.251709 63.632748 116.953766
12 0 1 20.935717 79.235062 119.547104
13 0 1 36.007206 11.913857 123.829163
14 0 1 27.780098 97.516220 115.748978
15 0 1 76.603180 97.916870 123.024689
16 0 1 11.590252 91.509178 107.717468
17 0 1 20.196198 73.991318 118.758957
18 0 1 14.589463 91.502296 108.504669
19 0 1 21.784180 17.959072 123.979721
20 0 1 32.937634 77.359833 112.660233
21 0 1 19.538824 0.343475 112.995041
22 0 1 98.262581 84.155640 117.560638
23 0 1 27.288324 86.982887 115.156357
24 0 1 84.691353 78.283737 115.820496
25 0 1 37.276711 97.916557 108.488220
26 0 1 15.163319 96.016159 117.763184
27 0 1 1.352416 96.081497 108.371002
28 0 1 89.668259 1.210364 115.971222
29 0 1 26.325912 85.475174 117.904953
30 0 1 24.395683 92.608925 122.233261
31 0 1 48.378597 98.036766 126.505157
32 0 1 18.346560 86.118034 125.139389
33 0 1 33.405914 93.126030 107.877914
34 0 1 89.497810 32.855385 115.211105
35 0 1 35.540737 99.701866 108.331238
36 0 1 33.013870 19.481951 113.501892
37 0 1 39.913391 98.684494 109.972565
38 0 1 37.560162 0.890963 108.894135
39 0 1 32.110397 6.393054 113.100220
40 0 1 28.051010 84.078484 124.886292
41 0 1 1.871140 9.166731 114.382492
42 0 1 13.345721 89.384209 116.099152
43 0 1 21.213390 10.996819 123.852661
44 0 1 32.499981 3.708977 123.158905
45 0 1 11.330300 6.194832 112.372330
46 0 1 8.073151 39.608147 120.564026
47 0 1 13.002529 13.471425 112.435349
48 0 1 93.640678 35.545155 116.005585
49 0 1 35.824116 97.678223 112.198441
50 0 1 12.043926 18.969227 112.670395
51 0 1 14.212739 25.632215 113.077316
52 0 1 35.584442 3.865616 115.057449
53 0 1 27.138010 19.400703 119.896301
54 0 1 6.673589 97.693176 112.363037
55 0 1 7.404775 9.275570 114.043991
56 0 1 11.800806 8.977160 111.548325
57 0 1 8.069695 11.841914 113.429016
58 0 1 9.157065 8.471749 112.517792
59 0 1 8.142140 11.773973 109.153656
60 0 1 10.173067 12.545120 111.328857
61 0 1 30.889944 8.203153 120.541046
62 0 1 10.840373 15.549953 110.814865
63 0 1 29.494791 9.225411 113.862473
64 0 1 58.325459 18.387722 123.423340
65 0 1 45.776726 85.147133 123.974808
66 0 1 11.789417 33.492699 111.658768
67 0 1 8.107354 29.779585 109.368805
68 0 1 75.414543 16.160419 116.906311
69 0 1 78.226021 51.153042 123.920288
70 0 1 10.056304 10.098581 109.462448
71 0 1 0.134454 28.825077 102.808395
72 0 1 88.331100 5.561536 115.746521
73 0 1 3.319382 32.703617 105.445694
74 0 1 8.644994 25.756025 123.613983
75 0 1 1.343267 26.155209 103.531723
76 0 1 5.628960 28.511005 115.441589
77 0 1 11.474984 16.171452 113.750275
78 0 1 12.957497 16.759836 108.897583
79 0 1 99.156044 26.788059 104.619614
80 0 1 7.936844 77.401764 114.552383
81 0 1 97.200188 65.224731 121.119858
82 0 1 89.709877 39.345482 117.073593
83 0 1 29.642059 63.482967 115.184830
84 0 1 1.542879 24.875874 113.741974
85 0 1 2.318683 54.343071 115.557922
86 0 1 42.581467 9.692192 125.949768
87 0 1 97.851471 7.669738 117.236511
88 0 1 84.742332 11.743964 111.292542
89 0 1 11.252995 55.673859 118.611877
90 0 1 14.798441 21.344063 113.058640
91 0 1 3.284421 27.662437 111.927948
92 0 1 32.034763 85.479454 115.895676
93 0 1 14.375436 96.999664 111.500732
94 0 1 3.029624 96.397713 112.380798
95 0 1 34.307529 77.682571 107.753586
96 0 1 23.915236 66.654945 119.186859
97 0 1 26.593250 81.251923 122.675781
98 0 1 24.574814 19.603703 115.764832
99 0 1 36.949776 98.556427 125.304199
100 0 1 27.621725 89.848328 113.568329
101 0 1 24.923836 60.869984 112.172302
102 0 1 8.221506 8.805844 117.320084
103 0 1 17.736607 19.467556 119.947662
104 0 1 37.063690 5.185668 121.213821
105 0 1 13.225946 76.834457 114.303955
106 0 1 31.510101 14.291298 124.093262
107 0 1 92.232277 9.686719 122.587067
108 0 1 18.261091 86.127930 112.915588
109 0 1 74.205391 27.730898 116.178040
110 0 1 64.544777 92.726128 122.874191
111 0 1 9.397818 96.941772 108.236191
112 0 1 26.178795 18.688948 122.302811
113 0 1 37.378963 21.276512 123.661438
114 0 1 13.617085 5.538854 110.674103
115 0 1 79.336197 88.592873 119.979462
116 0 1 30.268749 90.982971 109.776108
117 0 1 25.134422 96.103706 119.297958
118 0 1 57.635639 13.975887 119.232574
119 0 1 17.391354 84.972679 109.360641
120 0 1 22.468668 94.201279 109.623108
121 0 1 25.316069 90.373764 114.594513
122 0 1 93.953369 2.607329 114.496231
123 0 1 27.975462 92.939545 110.094467
124 0 1 9.690827 85.463120 119.563370
125 0 1 8.226473 17.486662 108.212311
126 0 1 18.777781 0.768390 108.329849
127 0 1 4.088634 24.870253 112.132034
128 0 1 8.707739 4.728949 121.352127
129 0 1 60.289120 0.233448 118.816635
130 0 1 19.525436 96.538422 117.236908
131 0 1 13.744718 91.712402 111.265778
132 0 1 23.486347 9.364418 109.316833
133 0 1 15.480162 79.450150 122.065613
134 0 1 37.338074 18.935534 119.012177
135 0 1 40.130253 19.504230 119.334610
136 0 1 31.377504 14.478553 118.307831
137 0 1 87.871628 14.550185 123.618256
138 0 1 13.006498 6.869353 114.105011
139 0 1 86.276703 97.680717 124.054337
140 0 1 86.304543 86.576523 123.512344
141 0 1 8.927529 99.134369 117.090149
142 0 1 84.825851 32.471958 112.218933
143 0 1 95.222916 8.877932 116.845856
144 0 1 56.610901 34.184456 109.854675
145 0 1 2.197459 44.739868 119.188614
146 0 1 33.802097 91.326553 110.908264
147 0 1 35.789730 99.347855 120.653854
148 0 1 0.991900 72.916512 121.519760
149 0 1 8.893174 0.748644 114.780746
150 0 1 53.034664 62.282520 121.048615
151 0 1 20.486668 15.348621 116.811584
152 0 1 3.762494 15.659625 113.325089
153 0 1 34.514469 97.274940 107.704193
154 0 1 34.172943 14.126203 124.067871
155 0 1 28.688896 86.999695 124.849091
156 0 1 20.628075 2.054395 122.010483
157 0 1 96.850082 21.643915 112.201416
158 0 1 40.580387 3.832394 108.294846
159 0 1 16.834999 83.717598 114.005768
160 0 1 16.309549 2.143961 108.063629
161 0 1 20.776110 4.795093 121.148743
162 0 1 54.838860 81.623756 123.083008
163 0 1 75.419243 3.584519 112.734894
164 0 1 40.735477 0.135821 127.212128
165 0 1 87.869026 0.252927 120.885971
166 0 1 13.371280 93.480034 122.146759
167 0 1 12.533320 9.616884 108.168762
168 0 1 4.616680 49.255745 108.431610
169 0 1 13.827409 77.322685 121.960419
170 0 1 0.209579 23.727665 104.542252
171 0 1 27.508314 15.999380 108.760193
172 0 1 11.721724 10.576393 116.754929
173 0 1 12.910558 94.201263 111.774063
174 0 1 3.877450 23.723335 122.676865
175 0 1 34.682495 17.157520 120.319153
176 0 1 66.089005 47.314087 118.828690
177 0 1 7.454869 78.156990 110.779251
178 0 1 16.245430 97.900169 109.246002
179 0 1 12.934587 19.625284 119.961273
180 0 1 4.317103 21.919716 120.818970
181 0 1 99.891724 0.169564 111.881775
182 0 1 33.965519 2.795626 125.081528
183 0 1 14.202377 12.017683 117.257202
184 0 1 14.637535 33.396614 110.637894
185 0 1 15.261885 91.694962 115.292648
186 0 1 28.956034 75.891556 123.093796
187 0 1 17.425236 95.240143 119.148560
188 0 1 36.149590 29.350422 113.177704
189 0 1 7.815434 8.309661 108.816315
190 0 1 15.963645 9.550260 117.962830
191 0 1 16.972269 47.407139 113.409683
192 0 1 6.143738 15.511909 115.958817
193 0 1 95.898834 12.264396 107.985229
194 0 1 96.452530 9.218486 108.061340
195 0 1 84.794174 14.756222 111.238937
196 0 1 31.350945 6.311185 124.688858
197 0 1 10.570087 8.725997 115.397339
198 0 1 20.845814 25.346443 113.182968
199 0 1 24.930906 68.747894 111.395554
200 0 1 19.470583 24.839083 119.214310
201 0 1 10.707432 12.880514 114.189682
202 0 1 14.810222 99.732506 107.397766
203 0 1 35.687656 16.172886 125.713730
204 0 1 90.939598 91.903305 124.392899
205 0 1 32.690033 6.257897 119.496140
206 0 1 97.045074 31.058460 119.662445
207 0 1 97.473816 42.631573 113.225723
208 0 1 16.027788 4.844566 109.168640
209 0 1 89.620636 27.600115 121.090988
210 0 1 2.472730 15.769326 124.853317
211 0 1 29.788591 22.602596 114.013580
212 0 1 44.795757 85.729668 119.414627
213 0 1 38.863869 16.906799 117.637787
214 0 1 87.549072 37.061440 119.903351
215 0 1 86.927246 13.693696 119.482971
216 0 1 36.643002 10.404332 115.248215
217 0 1 98.886185 32.064102 116.017365
218 0 1 0.360688 25.015081 109.169952
219 0 1 0.661039 17.562029 108.813705
220 0 1 4.979853 21.996788 105.002441
221 0 1 74.796951 45.909157 120.150009
222 0 1 16.144567 2.681120 120.637421
223 0 1 6.504242 25.630091 106.606796
224 0 1 68.438995 48.583561 117.449814
225 0 1 39.607334 94.089310 116.929977
226 0 1 97.041573 17.804106 109.278931
227 0 1 3.006477 24.019215 104.352356
228 0 1 10.970039 27.786486 122.864792
229 0 1 11.662527 75.728775 126.043045
230 0 1 4.253078 41.878300 111.246628
231 0 1 30.343174 87.667969 122.762924
232 0 1 23.202286 30.732124 106.158585
233 0 1 99.888969 12.088395 117.767166
234 0 1 1.449669 20.702978 111.512299
235 0 1 25.409626 32.058037 107.055588
236 0 1 26.485670 9.426663 113.971390
237 0 1 95.405914 96.805710 121.655716
238 0 1 10.964454 5.399758 119.566483
239 0 1 20.103422 6.367990 119.126434
240 0 1 16.687599 21.236774 110.997253
241 0 1 1.775536 24.456308 106.836563
242 0 1 81.896805 34.473984 120.317139
243 0 1 14.234364 50.850525 118.813141
244 0 1 92.515564 27.516533 107.943222
245 0 1 86.241257 1.903283 114.079697
246 0 1 96.564857 38.033905 122.279770
247 0 1 21.120846 56.185242 119.875992
248 0 1 24.022217 16.677376 122.183563
249 0 1 14.225527 4.568977 120.559784
250 0 1 16.196661 11.285525 120.950241
251 0 1 62.879433 3.726862 118.878235
252 0 1 89.976631 38.012550 119.299011
253 0 1 1.508785 99.140938 114.998306
254 0 1 9.939732 93.827202 115.328415
255 0 1 10.405856 96.771423 116.508560
256 0 1 36.744625 94.967979 122.928497
257 0 1 23.824762 30.591181 116.581589
258 0 1 10.335092 76.324127 119.687561
259 0 1 23.374769 12.497051 111.204422
260 0 1 12.858287 87.896080 113.638123
261 0 1 15.289566 89.316132 119.938492
262 0 1 14.402913 0.520306 114.456024
263 0 1 36.894127 0.521645 118.256348
264 0 1 17.463108 26.657967 118.858887
265 0 1 33.288555 80.997406 116.787109
266 0 1 28.328806 2.801328 111.123856
267 0 1 21.142883 1.803228 109.379074
268 0 1 47.525822 54.820042 123.335892
269 0 1 4.457569 31.040794 116.344070
270 0 1 80.237610 0.414683 120.916229
271 0 1 52.486694 95.257523 116.943817
272 0 1 54.696220 70.320976 115.674225
273 0 1 24.112860 86.386894 125.794250
274 0 1 25.512798 90.869995 111.586472
275 0 1 38.429298 91.321854 112.841110
276 0 1 57.282467 86.357452 114.713928
277 0 1 14.282003 5.461464 115.835464
278 0 1 85.727463 10.282303 120.958603
279 0 1 48.588753 21.532520 122.809067
280 0 1 95.353310 17.323246 121.496582
281 0 1 96.424187 91.297173 120.518356
282 0 1 57.846302 38.524654 114.926102
283 0 1 3.187277 80.916985 110.464935
284 0 1 27.579115 8.184094 109.810181
285 0 1 89.398582 46.080624 112.011169
286 0 1 40.284828 85.709770 120.295593
287 0 1 78.491020 11.815020 115.733444
288 0 1 13.361920 10.778422 122.275681
289 0 1 38.779568 85.235939 122.887344
290 0 1 91.916176 2.538702 109.961319
291 0 1 12.842765 89.571167 118.641373
292 0 1 21.516619 12.990875 126.276352
293 0 1 99.388367 81.160156 117.745682
294 0 1 93.395760 18.862150 119.943481
295 0 1 36.302593 27.082758 122.118210
296 0 1 13.099994 82.483803 115.766357
297 0 1 47.523853 95.976341 124.899811
298 0 1 92.131241 11.251759 125.013351
299 0 1 90.119308 85.990288 122.772934
300 0 1 27.035471 83.962906 122.168686
301 0 1 26.353729 59.545174 114.195267
302 0 1 33.093071 72.097923 106.352585
303 0 1 80.503464 43.915611 122.169907
304 0 1 42.038616 35.978821 120.186890
305 0 1 11.106397 82.370422 122.848770
306 0 1 92.216354 96.202072 108.865921
307 0 1 37.141266 15.399714 120.573959
308 0 1 3.562537 8.878420 116.636948
309 0 1 4.533745 31.703165 119.107300
310 0 1 4.157563 96.230896 117.248596
311 0 1 16.254932 5.781863 122.242249
312 0 1 79.339188 12.782618 124.017776
313 0 1 66.142555 93.591583 121.018967
314 0 1 48.830051 1.787255 119.408310
315 0 1 96.348312 91.960922 109.421997
316 0 1 45.207241 90.563148 124.841324
317 0 1 88.068687 18.566210 109.791061
318 0 1 6.903342 97.080582 117.123840
319 0 1 71.224792 36.284985 120.000122
320 0 1 11.838941 97.854507 107.115051
321 0 1 23.051023 4.178045 113.240570
322 0 1 28.477535 3.160836 113.840439
323 0 1 25.288492 69.094437 120.359482
324 0 1 9.907176 51.114616 117.402100
325 0 1 19.488338 58.435780 114.304535
326 0 1 1.754196 88.576447 113.414566
327 0 1 13.997489 46.470917 113.279144
328 0 1 37.022976 83.583298 114.542892
329 0 1 94.411613 23.505526 116.744446
330 0 1 28.702713 7.972843 116.308929
331 0 1 14.716489 25.729664 119.254410
332 0 1 37.525360 93.943794 118.591171
333 0 1 15.231200 8.821517 113.642197
334 0 1 84.295647 22.735544 122.938889
335 0 1 55.859608 69.754326 122.935181
336 0 1 1.329018 72.734238 126.197937
337 0 1 6.371875 91.710793 119.822159
338 0 1 9.071375 85.283691 125.289536
339 0 1 0.948972 17.296289 123.335876
340 0 1 20.085686 84.897202 121.975647
341 0 1 41.439175 5.764206 119.535675
342 0 1 31.025839 3.832344 113.559418
343 0 1 7.995605 97.500732 119.443817
344 0 1 21.296347 86.434166 111.486938
345 0 1 35.084610 9.342318 123.766479
346 0 1 46.197815 6.178032 124.291214
347 0 1 35.315403 3.941849 122.894073
348 0 1 18.747677 49.818825 113.688858
349 0 1 30.956680 12.875020 112.289612
350 0 1 3.344923 95.608284 119.946838
351 0 1 21.552162 98.489525 116.012421
352 0 1 31.447266 97.319473 107.602020
353 0 1 51.947311 86.274437 124.032364
354 0 1 49.100967 67.403168 113.260391
355 0 1 22.128637 0.842517 117.358276
356 0 1 49.390251 21.572823 119.702438
357 0 1 20.342123 89.592628 119.138779
358 0 1 10.620107 86.505493 114.634613
359 0 1 8.243993 83.391541 108.778336
360 0 1 11.522916 78.420715 117.476059
361 0 1 13.441072 48.777534 111.406845
362 0 1 41.334229 12.439524 124.177460
363 0 1 97.708870 27.155748 108.996338
364 0 1 92.728722 22.062153 105.457062
365 0 1 96.497314 32.854462 117.612015
366 0 1 1.779480 91.955086 114.180054
367 0 1 90.062149 39.683777 106.641571
368 0 1 6.906138 78.206108 117.296982
369 0 1 19.107246 45.226307 113.774490
370 0 1 18.317003 4.000158 122.443604
371 0 1 4.011742 0.849730 119.588333
372 0 1 3.675436 28.961950 106.928085
373 0 1 8.291348 24.665403 115.314331
374 0 1 9.167004 88.149696 116.674927
375 0 1 34.632984 11.258702 119.823547
376 0 1 39.975601 71.015274 121.059738
377 0 1 60.163013 91.864433 122.359497
378 0 1 94.433067 41.876053 112.310959
379 0 1 0.496232 14.655484 122.488968
380 0 1 20.660852 4.435991 110.805756
381 0 1 13.728069 24.220655 124.195511
382 0 1 52.602661 7.458336 121.759491
383 0 1 16.830338 7.391551 110.476120
384 0 1 10.297029 75.256218 114.965454
385 0 1 58.321712 5.360899 125.006485
386 0 1 90.666992 15.337856 123.472794
387 0 1 20.327776 47.736858 122.389542
388 0 1 32.812130 18.269510 121.718781
389 0 1 94.160240 25.211752 108.440414
390 0 1 95.151108 26.601370 119.558945
391 0 1 37.270088 5.296487 113.398132
392 0 1 95.419983 27.147793 104.358627
393 0 1 16.489012 10.093465 111.838013
394 0 1 45.214252 99.789505 113.773392
395 0 1 73.592018 21.924763 119.899704
396 0 1 0.123396 30.819508 123.772629
397 0 1 96.266563 95.693695 117.212280
398 0 1 28.679497 87.205223 117.731461
399 0 1 35.472675 0.563992 123.688095
400 0 1 26.207130 23.147417 122.587418
401 0 1 32.747646 99.271393 120.024796
402 0 1 19.550943 38.447662 110.203613
403 0 1 21.879253 2.104994 112.002991
404 0 1 38.057884 9.787542 123.854416
405 0 1 9.812181 35.765926 111.138443
406 0 1 33.592468 11.274241 122.296616
407 0 1 32.323395 6.477112 122.086121
408 0 1 27.156315 70.494049 111.274002
409 0 1 28.514175 9.548568 118.569138
410 0 1 39.349777 7.881013 125.538132
411 0 1 43.024315 93.074806 115.079086
412 0 1 87.007530 21.306149 116.313568
413 0 1 6.292236 26.466307 121.602600
414 0 1 17.862198 26.018663 115.976501
415 0 1 6.906905 53.272442 113.849457
416 0 1 22.749170 8.051084 117.443954
417 0 1 95.149628 9.974637 106.081711
418 0 1 27.309519 9.365580 123.915680
419 0 1 9.664310 2.861072 123.257965
420 0 1 87.218735 17.186941 124.073074
421 0 1 43.676182 35.284470 117.780869
422 0 1 16.308361 7.187420 115.666458
423 0 1 6.852477 83.198410 125.823380
424 0 1 0.667113 20.154057 123.664963
425 0 1 98.804138 80.372528 120.079926
426 0 1 90.441490 67.000824 118.908463
427 0 1 23.517481 4.214160 110.399216
428 0 1 88.819901 87.631996 114.291489
429 0 1 89.551170 21.428061 117.274460
430 0 1 96.075005 4.052441 108.357574
431 0 1 79.095963 73.837746 115.442551
432 0 1 6.736591 84.245613 117.881424
433 0 1 9.372043 21.810663 115.995422
434 0 1 5.117859 78.944443 122.195038
435 0 1 88.433655 7.748269 123.811737
436 0 1 97.397636 75.475433 116.231064
437 0 1 96.639183 98.562012 115.278046
438 0 1 71.034737 70.458961 116.176880
439 0 1 77.605339 81.065369 109.112778
440 0 1 46.341305 0.335811 119.005722
441 0 1 23.887878 75.671494 120.759979
442 0 1 46.117001 32.971695 120.908020
443 0 1 17.483891 84.796631 106.664551
444 0 1 28.706684 61.039104 110.142563
445 0 1 92.446617 77.124687 113.835587
446 0 1 10.861258 77.493874 122.302246
447 0 1 25.637550 68.498718 117.774307
448 0 1 26.167988 97.959000 113.142593
449 0 1 77.236519 20.839033 108.575974
450 0 1 10.333191 6.441080 117.045074
451 0 1 37.404583 24.083649 122.332336
452 0 1 90.081085 14.290468 115.430054
453 0 1 89.491394 85.935036 119.683914
454 0 1 5.978651 9.304731 123.159744
455 0 1 69.012718 89.109055 119.927200
456 0 1 8.212687 18.726772 123.074997
457 0 1 17.690990 16.620140 116.580643
458 0 1 4.516083 87.122421 118.364365
459 0 1 18.494301 87.193260 119.468933
460 0 1 3.127147 89.639847 115.655182
461 0 1 18.575714 95.462547 113.053665
462 0 1 77.652534 3.520595 110.969696
463 0 1 45.134865 83.042915 118.743774
464 0 1 7.214997 92.414383 117.131302
465 0 1 40.485909 77.897415 113.860153
466 0 1 86.368141 15.552118 115.257034
467 0 1 33.101517 89.129433 109.084106
468 0 1 71.903587 58.450886 112.746750
469 0 1 60.111065 17.465998 113.626007
470 0 1 41.385303 7.163021 114.944580
471 0 1 53.410267 5.670593 112.747116
472 0 1 33.167122 84.112816 117.924591
473 0 1 90.992203 11.417970 115.296112
474 0 1 28.650517 81.563118 113.146866
475 0 1 10.897990 91.435646 118.684204
476 0 1 6.202311 96.273827 121.335571
477 0 1 3.134490 10.471222 109.118515
478 0 1 97.223557 4.259196 110.916321
479 0 1 93.798218 1.800275 122.083786
480 0 1 56.618893 89.011780 119.376495
481 0 1 15.058054 34.263039 118.919342
482 0 1 87.049583 31.342665 111.551331
483 0 1 10.156294 22.131067 110.960373
484 0 1 78.804367 2.126395 124.761719
485 0 1 84.256165 3.848058 108.603226
486 0 1 5.883142 94.405930 116.132721
487 0 1 20.941414 10.833365 120.933838
488 0 1 13.449015 98.728745 109.454315
489 0 1 3.084280 83.591423 115.291595
490 0 1 6.114089 36.818119 119.901718
491 0 1 5.630221 19.593670 124.564224
492 0 1 94.881409 50.827629 124.406448
493 0 1 45.775162 97.827736 110.959015
494 0 1 7.009860 20.467810 117.203445
495 0 1 32.462048 96.132736 123.967682
496 0 1 82.208618 90.044579 124.712555
497 0 1 12.621420 70.596855 118.519379
498 0 1 8.580161 5.340610 111.592072
499 0 1 2.962863 52.854633 113.061493
500 0 1 15.233756 29.126186 111.068222
501 0 1 4.809847 1.916590 116.955383
502 0 1 94.338623 13.632275 118.756470
503 0 1 6.430373 17.083029 110.648117
504 0 1 19.230635 91.638458 121.552963
505 0 1 49.192394 1.619705 126.545166
506 0 1 8.337904 0.538120 109.448593
507 0 1 32.458336 26.821398 116.828384
508 0 1 2.295253 0.664746 122.821304
509 0 1 97.700851 21.428240 120.434174
510 0 1 99.089653 12.080472 122.990356
511 0 1 18.669823 21.672636 112.626984
512 0 1 26.217567 86.039391 123.862961
513 0 1 49.832981 11.951236 125.734695
514 0 1 15.364512 99.969124 121.535278
515 0 1 5.250381 21.681362 108.714432
516 0 1 30.641880 15.206188 126.570145
517 0 1 16.265854 82.207771 121.843399
518 0 1 28.564219 97.401779 108.735992
519 0 1 24.832121 92.965950 114.149094
520 0 1 94.234306 99.667313 114.438904
521 0 1 27.128616 89.443954 117.383774
522 0 1 95.956245 39.743473 111.119095
523 0 1 20.115274 12.623452 118.019653
524 0 1 17.063339 85.479034 116.188766
525 0 1 43.487705 5.766982 123.534622
526 0 1 33.601254 4.069820 113.394836
527 0 1 80.911179 98.199684 125.015579
528 0 1 95.390884 92.242180 117.956604
529 0 1 96.809273 15.232817 126.243195
530 0 1 73.630417 22.790619 122.661301
531 0 1 8.492325 80.027611 108.939789
532 0 1 99.559784 8.323509 107.888062
533 0 1 7.113770 22.015816 120.305283
534 0 1 20.976538 85.548241 119.076523
535 0 1 98.879730 87.670982 113.130600
536 0 1 34.118759 5.590034 124.855606
537 0 1 20.094080 7.848473 112.122925
538 0 1 25.169140 0.333267 117.813202
539 0 1 12.732425 12.665209 124.320068
540 0 1 99.569038 75.204880 121.955551
541 0 1 92.543388 92.450859 118.947952
542 0 1 20.038015 20.260380 118.099472
543 0 1 12.052063 25.003811 119.557846
544 0 1 4.956064 73.556976 123.507751
545 0 1 46.991741 97.387466 113.758591
546 0 1 15.214775 31.558498 112.358368
547 0 1 23.329494 74.914879 123.435791
548 0 1 93.887337 16.119911 119.253494
549 0 1 45.384377 11.611525 113.921921
550 0 1 26.127354 97.897804 108.214340
551 0 1 42.939526 15.842879 109.337891
552 0 1 38.026684 2.351197 114.560394
553 0 1 8.104564 17.204988 115.431931
554 0 1 3.594281 79.270660 127.513245
555 0 1 8.130103 95.329468 112.550766
556 0 1 93.558716 7.093837 113.254593
557 0 1 99.804916 12.685482 120.469528
558 0 1 19.992847 17.935448 121.566315
559 0 1 32.304859 19.641966 119.511353
560 0 1 4.556932 8.598175 114.020050
561 0 1 79.533440 24.970877 122.792282
562 0 1 22.685066 86.397835 108.597961
563 0 1 98.207085 31.532213 108.101562
564 0 1 8.883698 25.916843 112.873199
565 0 1 47.070141 38.772675 120.279648
566 0 1 28.224348 18.177849 117.683731
567 0 1 3.555753 3.575504 118.855850
568 0 1 60.064697 76.850655 117.493530
569 0 1 42.275761 8.423433 123.291351
570 0 1 37.329807 18.036772 126.869797
571 0 1 11.960148 4.339397 116.475342
572 0 1 39.458515 6.276707 121.288940
573 0 1 40.460636 65.208725 114.715500
574 0 1 87.749039 93.241875 121.231125
575 0 1 29.921839 89.979225 116.247711
576 0 1 97.622437 37.102051 106.316559
577 0 1 49.629189 91.385063 121.922546
578 0 1 37.953758 50.368755 116.306198
579 0 1 94.782539 94.452209 119.566238
580 0 1 7.660131 74.677704 114.897934
581 0 1 93.785896 14.062854 109.537903
582 0 1 13.688641 88.616730 107.888824
583 0 1 83.120827 17.978010 111.369461
584 0 1 50.485455 8.384048 114.988647
585 0 1 6.915109 3.656902 123.358459
586 0 1 99.185371 40.730103 118.608368
587 0 1 18.761225 11.498839 125.099228
588 0 1 16.245190 21.407875 117.661987
589 0 1 27.095394 2.346822 116.601120
590 0 1 23.461832 98.361565 118.792938
591 0 1 18.054785 98.012398 113.895325
592 0 1 35.133556 98.440796 114.804504
593 0 1 98.626312 24.625141 106.945145
594 0 1 39.822559 4.928039 112.067322
595 0 1 11.536768 44.354656 116.532745
596 0 1 29.790827 26.023943 117.483261
597 0 1 3.051188 25.731489 109.155060
598 0 1 12.935072 18.256853 115.556732
599 0 1 90.590736 32.779984 121.122040
600 0 1 7.274600 33.879356 111.017288
601 0 1 96.444740 24.135731 119.692902
602 0 1 31.879414 22.339838 119.687042
603 0 1 6.304287 27.916162 108.013809
604 0 1 99.180908 42.327919 111.047607
605 0 1 0.407136 60.620193 113.649216
606 0 1 16.646730 37.433338 110.011398
607 0 1 6.759660 26.125347 111.197784
608 0 1 11.736788 20.828459 115.035858
609 0 1 9.258370 17.576881 112.545685
610 0 1 37.383598 35.499825 117.589493
611 0 1 95.844635 17.917868 118.529877
612 0 1 26.774097 46.609493 121.172256
613 0 1 89.465942 29.666426 111.002686
614 0 1 8.804417 32.440216 108.014023
615 0 1 93.061531 3.410437 119.796219
616 0 1 18.331978 45.175144 111.201462
617 0 1 7.636233 34.888691 108.977554
618 0 1 8.405021 19.630604 114.642532
619 0 1 90.826004 35.699623 115.942474
620 0 1 30.640263 28.756214 116.815948
621 0 1 38.814552 19.492058 116.672592
622 0 1 6.205451 99.363968 110.460495
623 0 1 18.947300 24.306318 107.089325
624 0 1 81.398544 12.353829 121.959045
625 0 1 94.872887 1.648778 118.443100
626 0 1 99.320999 32.559658 105.707718
627 0 1 96.340111 1.520214 120.767883
628 0 1 30.250027 20.755842 124.117371
629 0 1 20.827650 25.680220 123.287170
630 0 1 5.899496 43.862103 107.583359
631 0 1 30.148058 46.367516 115.852585
632 0 1 1.195950 90.443939 120.507446
633 0 1 35.528248 47.896183 119.149094
634 0 1 71.953125 55.175320 121.310593
635 0 1 13.878101 22.964350 107.060013
636 0 1 14.124370 34.251770 116.012878
637 0 1 21.279469 34.908901 107.087463
638 0 1 6.088836 39.729164 106.711990
639 0 1 95.865692 35.841278 104.343414
640 0 1 5.328878 46.055134 108.542435
641 0 1 87.951027 70.437485 115.964569
642 0 1 86.860542 38.451645 122.429398
643 0 1 11.758350 31.418400 113.868881
644 0 1 20.541061 12.884748 110.439529
645 0 1 20.534201 32.905006 104.906601
646 0 1 83.891602 49.800751 123.837418
647 0 1 19.077888 33.071270 107.422379
648 0 1 29.727671 5.535622 119.913071
649 0 1 33.356972 42.803867 114.384628
650 0 1 7.645433 47.962872 109.409836
651 0 1 0.078276 28.426588 119.414337
652 0 1 13.170583 40.754406 108.697922
653 0 1 3.240523 35.670086 115.520508
654 0 1 0.288398 39.511547 110.033951
655 0 1 96.493912 80.314659 118.426620
656 0 1 16.290737 24.128469 117.540619
657 0 1 20.350090 30.668539 107.663773
658 0 1 22.310230 34.120667 110.356064
659 0 1 98.747643 10.354407 111.503036
660 0 1 36.779438 39.146023 123.435852
661 0 1 18.483017 33.882698 123.219742
662 0 1 23.937971 35.109142 108.288147
663 0 1 35.370281 26.089285 115.463287
664 0 1 1.675375 27.901505 114.389450
665 0 1 38.846649 58.751884 117.809204
666 0 1 18.880415 36.084995 108.462814
667 0 1 25.611473 37.877995 109.931427
668 0 1 12.680272 27.514385 120.639648
669 0 1 25.214031 86.291527 121.456635
670 0 1 99.201981 29.511568 105.401657
671 0 1 84.163132 58.009224 121.965378
672 0 1 32.455551 23.208355 107.664993
673 0 1 1.372247 55.082092 121.952240
674 0 1 96.961884 27.133741 106.346634
675 0 1 17.255606 40.815372 116.381683
676 0 1 1.649345 43.183189 117.229691
677 0 1 52.406967 51.741943 114.941544
678 0 1 10.703202 18.356419 109.982544
679 0 1 9.217743 36.462063 114.197845
680 0 1 48.711353 33.369381 106.785416
681 0 1 12.320580 44.983944 120.013580
682 0 1 35.071087 25.071587 120.259094
683 0 1 6.324126 34.530434 106.340485
684 0 1 95.064453 43.824734 119.319504
685 0 1 55.346401 28.834240 117.554352
686 0 1 4.325420 23.779886 107.169998
687 0 1 77.251564 89.342491 124.758484
688 0 1 98.270950 26.311184 120.764908
689 0 1 1.093484 49.039021 108.983673
690 0 1 96.420265 30.460157 115.255630
691 0 1 39.309483 36.256386 115.638931
692 0 1 93.583832 25.837864 112.733414
693 0 1 5.026563 17.297972 117.303680
694 0 1 45.579197 0.319326 126.378815
695 0 1 96.331528 35.739906 110.615692
696 0 1 27.452972 13.223104 115.932404
697 0 1 1.013433 16.311398 111.536865
698 0 1 85.113182 29.416067 120.451401
699 0 1 65.820770 40.325699 109.992462
700 0 1 37.168365 14.677151 123.340805
701 0 1 23.033171 36.169041 117.494385
702 0 1 58.342251 3.501822 118.214554
703 0 1 99.857323 9.525832 116.754059
704 0 1 15.990713 25.112467 108.060760
705 0 1 31.027452 95.321159 116.566467
706 0 1 18.142277 66.067184 114.415085
707 0 1 21.218416 35.488060 121.544693
708 0 1 29.324423 24.500454 111.807724
709 0 1 9.471956 11.076429 118.121811
710 0 1 13.102001 35.875278 111.239151
711 0 1 15.975924 4.864435 113.560165
712 0 1 15.389116 39.064331 117.825394
713 0 1 26.483852 16.724747 120.296478
714 0 1 15.451953 49.111160 124.261276
715 0 1 23.442305 8.981469 114.289200
716 0 1 1.861680 41.388538 114.634186
717 0 1 5.659389 30.387043 108.717987
718 0 1 95.246109 21.256277 105.767944
719 0 1 11.268524 32.313541 120.073166
720 0 1 92.004753 15.845480 107.361954
721 0 1 95.195663 21.228004 118.850021
722 0 1 11.126608 51.060200 110.945801
723 0 1 6.091280 46.245678 111.657043
724 0 1 33.760384 15.314180 116.990189
725 0 1 10.947625 31.068787 109.061874
726 0 1 33.646404 67.625565 119.137207
727 0 1 22.569433 30.109364 122.745743
728 0 1 72.916557 13.267653 123.806015
729 0 1 99.629532 45.377163 117.716599
730 0 1 15.759859 31.658140 122.580963
731 0 1 11.705633 22.376223 123.342545
732 0 1 6.588986 42.446266 120.671753
733 0 1 29.462402 18.061079 110.860733
734 0 1 23.952875 86.488609 118.877625
735 0 1 23.195129 41.551388 120.090424
736 0 1 89.267387 42.464157 109.943558
737 0 1 3.839802 26.323082 114.756317
738 0 1 15.891598 51.059128 115.997360
739 0 1 8.507539 43.848904 115.221329
740 0 1 8.054311 45.862541 107.346466
741 0 1 22.448807 33.860287 119.607681
742 0 1 58.839581 47.519066 118.112213
743 0 1 7.539222 46.440075 116.838882
744 0 1 83.982841 15.498201 113.790222
745 0 1 2.998757 31.810055 108.192261
746 0 1 91.474945 40.581760 108.989105
747 0 1 11.320163 25.721804 124.740692
748 0 1 12.696736 31.165756 111.361816
749 0 1 8.399313 36.625839 121.390808
750 0 1 98.223495 85.108574 120.461624
751 0 1 63.929062 47.679054 122.880249
752 0 1 29.882994 26.006340 114.508301
753 0 1 56.139492 88.926277 126.957031
754 0 1 74.692322 17.441803 121.547684
755 0 1 97.565041 45.273338 119.916275
756 0 1 12.258517 34.338829 118.570984
757 0 1 33.468704 22.526743 124.503860
758 0 1 10.050257 42.227661 110.342621
759 0 1 15.738078 36.462055 117.012375
760 0 1 51.707367 11.401453 123.827652
761 0 1 0.904495 36.430820 116.578568
762 0 1 97.038063 42.210869 118.848145
763 0 1 89.504311 37.149837 121.952530
764 0 1 17.535936 43.552143 120.462234
765 0 1 83.020370 48.350384 118.409927
766 0 1 6.464413 16.428030 113.253799
767 0 1 11.398546 60.002331 122.405228
768 0 1 82.264458 65.501099 121.483429
769 0 1 70.342888 89.177589 115.251541