LAMMPS data file via MDAnalysis

       35500  atoms
           0  bonds
           0  angles
           0  dihedrals
           0  impropers

           2  atom types
           0  bond types
           0  angle types
           0  dihedral types
           0  improper types

0.000000 100.000000 xlo xhi
0.000000 100.000000 ylo yhi
0.000000 137.927979 zlo zhi


Masses

1 26.982000
2 15.999000

Atoms

1 0 1 4.981160 81.717400 134.525040
2 0 1 13.770135 87.471634 119.446304
3 0 1 81.290276 67.570992 134.812653
4 0 1 21.758438 67.528053 119.989464
5 0 1 41.994164 14.778681 134.875580
6 0 1 99.318947 62.223518 130.443115
7 0 1 26.864571 45.407921 126.543777
8 0 1 21.426317 52.700275 127.105141
9 0 1 28.076958 59.132938 127.453911
10 0 1 13.889737 6.920734 122.075432
11 0 1 97.010010 46.360481 127.107140
12 0 1 77.369835 70.921577 131.892197
13 0 1 22.279510 79.605713 127.928566
14 0 1 30.982281 90.931992 122.626381
15 0 1 59.337830 6.180731 128.969299
16 0 1 14.069859 76.255646 120.405891
17 0 1 99.567642 54.238007 120.710289
18 0 1 16.951426 77.169426 120.482819
19 0 1 95.627388 76.703232 131.212509
20 0 1 18.443260 66.686424 128.848663
21 0 1 4.472054 66.572685 128.753983
22 0 1 79.119621 57.385155 130.252945
23 0 1 30.407145 72.949577 126.779640
24 0 1 12.646133 56.976513 133.713135
25 0 1 39.329704 82.784683 118.220047
26 0 1 13.711293 64.255692 131.515656
27 0 1 7.932811 78.335289 119.631233
28 0 1 72.954430 59.881393 135.299408
29 0 1 61.716961 62.582645 129.253052
30 0 1 43.565926 86.986481 132.727448
31 0 1 70.211746 59.899227 134.737137
32 0 1 93.408806 56.888348 129.065872
33 0 1 35.387604 79.078819 119.140442
34 0 1 95.534264 7.442082 124.899200
35 0 1 37.670918 84.965012 118.591095
36 0 1 37.334118 9.022655 132.835831
37 0 1 42.881390 84.082832 117.669090
38 0 1 40.023773 85.393112 116.028633
39 0 1 45.734356 7.515358 123.569633
40 0 1 35.313686 77.670685 127.770264
41 0 1 19.853014 88.165321 130.655151
42 0 1 5.196702 64.834190 134.501129
43 0 1 36.270947 97.466377 127.965912
44 0 1 35.958473 95.573471 132.276428
45 0 1 14.081995 88.365074 125.266975
46 0 1 13.390285 18.785721 125.820122
47 0 1 15.552321 95.472107 126.715942
48 0 1 14.073975 6.166550 131.075928
49 0 1 40.124161 84.108215 121.837761
50 0 1 15.830572 1.279851 125.579865
51 0 1 2.635337 90.528137 127.946266
52 0 1 34.018509 92.919624 125.848228
53 0 1 19.875874 83.028679 130.555237
54 0 1 90.298706 96.387634 133.167709
55 0 1 8.595233 90.799156 124.496742
56 0 1 14.638537 91.125641 124.594086
57 0 1 10.544449 93.500961 125.108070
58 0 1 11.753476 90.744873 124.789650
59 0 1 11.329101 94.635117 121.434807
60 0 1 13.339149 95.059509 124.306175
61 0 1 52.442604 7.499494 128.021545
62 0 1 12.566652 98.134941 124.295891
63 0 1 23.287584 3.579486 133.597015
64 0 1 48.378128 14.347569 136.885071
65 0 1 45.216164 78.669334 119.978516
66 0 1 17.578205 15.086349 126.402870
67 0 1 12.371112 12.427587 122.257858
68 0 1 83.926834 4.900813 128.655273
69 0 1 75.588394 20.419413 124.336418
70 0 1 13.278500 91.765129 122.227531
71 0 1 2.614559 11.222481 120.475479
72 0 1 54.613235 92.240341 134.221237
73 0 1 5.411181 15.684769 120.858681
74 0 1 18.474197 39.475819 134.006348
75 0 1 5.036915 9.839741 120.488022
76 0 1 97.095909 19.509806 127.171196
77 0 1 15.824129 98.310471 126.122490
78 0 1 16.002808 99.370682 123.048523
79 0 1 2.440228 8.710462 120.980942
80 0 1 41.119366 41.163857 124.982712
81 0 1 76.821724 50.982365 135.866653
82 0 1 82.142563 18.582178 132.156799
83 0 1 18.125216 49.141144 131.095200
84 0 1 80.738640 19.878767 130.136887
85 0 1 3.451160 40.812309 132.764221
86 0 1 25.949396 57.490570 126.645355
87 0 1 5.690623 7.698061 135.422714
88 0 1 52.487179 85.566093 133.726700
89 0 1 52.940079 60.748672 132.232330
90 0 1 9.086409 12.631126 135.816193
91 0 1 12.925404 85.891441 129.533234
92 0 1 35.276634 72.670013 128.441666
93 0 1 11.369226 1.944292 131.295441
94 0 1 99.927185 77.045181 132.791458
95 0 1 32.208961 59.260208 134.043427
96 0 1 95.174232 33.181297 130.584839
97 0 1 18.417656 29.028347 128.913513
98 0 1 29.244616 15.924950 125.852097
99 0 1 33.809093 83.217819 120.587692
100 0 1 30.665131 75.347755 124.490746
101 0 1 35.493378 54.118786 131.237015
102 0 1 10.235139 88.551231 124.324066
103 0 1 33.501743 89.880127 116.408218
104 0 1 12.616155 69.967247 128.421341
105 0 1 14.859212 59.878780 123.150780
106 0 1 11.493860 96.030525 135.408432
107 0 1 22.454632 13.574234 132.794479
108 0 1 19.115217 70.856819 123.132423
109 0 1 87.136063 76.919022 126.483780
110 0 1 75.258217 77.434082 129.323334
111 0 1 11.794060 80.876656 122.171227
112 0 1 45.141384 35.468597 132.790512
113 0 1 47.929283 24.743517 131.264114
114 0 1 16.596764 87.976807 123.813065
115 0 1 71.068466 52.100906 135.193893
116 0 1 32.200249 77.483299 120.036781
117 0 1 13.982301 68.563293 122.662872
118 0 1 65.852989 29.246256 131.400467
119 0 1 20.606644 69.708023 120.578278
120 0 1 24.579708 78.627884 120.337479
121 0 1 28.516680 75.833023 125.783707
122 0 1 16.715902 76.821968 131.055832
123 0 1 31.094801 79.796288 122.156174
124 0 1 16.687614 63.987114 131.229599
125 0 1 10.937367 3.304595 120.520859
126 0 1 20.849789 84.026482 118.319046
127 0 1 14.274423 20.914967 133.389679
128 0 1 85.083931 76.191139 133.007950
129 0 1 62.483372 83.571159 128.252304
130 0 1 10.456091 77.644547 130.200119
131 0 1 33.423683 53.352848 129.398315
132 0 1 23.922438 91.397743 116.761353
133 0 1 5.278872 84.180496 132.786819
134 0 1 38.432049 7.372278 128.727844
135 0 1 32.548203 82.278603 126.917679
136 0 1 7.854944 95.624825 132.976395
137 0 1 75.195549 1.217511 126.760567
138 0 1 15.550405 88.883743 127.387230
139 0 1 60.524990 81.662201 126.346573
140 0 1 13.144860 44.984547 132.225098
141 0 1 27.561630 81.926193 132.487976
142 0 1 62.429665 20.244820 123.070557
143 0 1 95.129761 79.138519 125.257698
144 0 1 59.462109 18.177374 123.449379
145 0 1 0.925518 92.105858 126.463814
146 0 1 37.382961 76.031647 123.460724
147 0 1 36.787838 7.503400 134.826553
148 0 1 13.193213 65.495995 122.598915
149 0 1 17.872625 83.229408 128.783936
150 0 1 53.619034 20.278126 130.288345
151 0 1 32.508621 7.348362 135.803253
152 0 1 4.877737 69.609253 122.814575
153 0 1 36.573517 82.525085 118.862038
154 0 1 38.448978 19.113670 135.919144
155 0 1 25.562765 59.896755 135.187088
156 0 1 8.416056 16.974634 133.188980
157 0 1 4.524659 98.161781 127.705872
158 0 1 43.703300 89.464867 117.879539
159 0 1 9.383443 67.351257 133.941864
160 0 1 18.610872 85.013084 120.652634
161 0 1 19.285988 80.170502 121.248543
162 0 1 75.367325 57.366047 124.590683
163 0 1 95.787682 58.520451 128.999435
164 0 1 54.278351 50.084869 128.913025
165 0 1 3.714977 84.282562 120.790359
166 0 1 15.744015 84.408760 124.792618
167 0 1 15.676879 92.102684 121.805000
168 0 1 5.456324 32.251011 121.327042
169 0 1 11.201953 84.892967 133.810150
170 0 1 5.312691 7.282970 121.695770
171 0 1 30.925571 97.031006 120.241600
172 0 1 12.502064 92.140953 129.633301
173 0 1 36.967953 70.698128 133.058014
174 0 1 33.351715 11.100741 134.750381
175 0 1 96.354492 13.229251 127.270195
176 0 1 78.384323 65.875542 127.275017
177 0 1 11.084558 63.166721 116.918587
178 0 1 13.178994 82.458214 125.063263
179 0 1 44.521019 39.323914 122.554359
180 0 1 17.514894 7.747730 126.624367
181 0 1 96.729317 86.398552 122.872284
182 0 1 27.145792 89.184464 115.363403
183 0 1 15.093801 93.145950 130.882889
184 0 1 16.246342 35.797108 126.153374
185 0 1 25.742487 61.062496 127.755371
186 0 1 9.841441 37.451740 125.082802
187 0 1 24.227665 74.627129 133.280060
188 0 1 52.585449 55.182350 128.552414
189 0 1 10.718830 91.648239 121.106483
190 0 1 32.193718 86.964172 130.563004
191 0 1 13.708648 35.773365 133.342270
192 0 1 80.790771 26.900202 132.842072
193 0 1 99.308807 95.321960 119.084023
194 0 1 1.107920 93.174187 119.944489
195 0 1 71.887283 87.747742 129.247910
196 0 1 42.962185 92.903870 129.262054
197 0 1 12.176812 90.338394 127.604599
198 0 1 21.034616 15.957088 132.177536
199 0 1 31.320654 58.401543 121.414238
200 0 1 37.940006 38.364674 130.791824
201 0 1 12.614359 94.635239 127.059906
202 0 1 18.294378 80.411713 124.121460
203 0 1 45.245350 98.890564 130.467621
204 0 1 85.097618 40.246391 129.001175
205 0 1 61.408482 71.297935 130.645599
206 0 1 71.248116 16.065855 128.295074
207 0 1 0.836612 22.809351 117.270699
208 0 1 19.105299 87.322891 122.355537
209 0 1 65.923203 86.324402 132.759262
210 0 1 77.902458 16.859016 126.867477
211 0 1 43.593826 21.180195 135.133987
212 0 1 48.456905 79.417709 129.172791
213 0 1 32.761513 90.341202 126.684731
214 0 1 70.385178 26.615765 133.125687
215 0 1 6.876842 8.914451 126.466927
216 0 1 52.521881 90.107857 121.098457
217 0 1 3.744771 7.805243 133.029358
218 0 1 30.373619 11.541587 124.790825
219 0 1 74.152855 7.165318 131.690826
220 0 1 6.855479 3.618422 122.111221
221 0 1 47.986172 7.861014 131.327118
222 0 1 0.443323 81.003143 128.535980
223 0 1 11.745236 7.663827 120.366913
224 0 1 2.630324 20.608879 131.586609
225 0 1 35.739601 1.780263 131.482666
226 0 1 31.557318 6.445914 123.989388
227 0 1 6.865107 6.225209 124.393631
228 0 1 56.141048 19.916332 136.382248
229 0 1 9.904074 95.060135 127.481285
230 0 1 4.929831 27.078815 125.519508
231 0 1 9.957227 64.916840 135.482498
232 0 1 26.250744 14.081575 119.148087
233 0 1 28.280519 65.368065 130.423264
234 0 1 38.203461 1.930514 129.568649
235 0 1 28.447239 14.810988 120.849655
236 0 1 24.439310 5.306211 136.224045
237 0 1 3.798662 63.151772 132.786819
238 0 1 44.724800 89.996681 126.365257
239 0 1 85.870148 17.828304 132.477966
240 0 1 15.989329 23.723631 135.913391
241 0 1 9.904269 37.273724 130.633255
242 0 1 84.334091 27.798876 136.076721
243 0 1 84.320137 29.108646 129.545441
244 0 1 95.516968 9.569502 121.243675
245 0 1 0.960233 77.722054 130.224197
246 0 1 12.370919 58.611870 125.540848
247 0 1 4.443731 62.530975 126.101097
248 0 1 81.464119 32.063599 134.641479
249 0 1 32.912685 50.495308 129.642899
250 0 1 17.600164 24.968893 131.650116
251 0 1 61.550770 86.154472 120.777092
252 0 1 81.152527 89.124527 123.358131
253 0 1 8.905173 87.398842 118.173882
254 0 1 34.824394 62.242725 130.469238
255 0 1 33.174931 76.434586 125.775063
256 0 1 23.410980 77.344971 133.852600
257 0 1 38.418343 82.513626 132.585861
258 0 1 3.657216 69.160042 127.952629
259 0 1 98.183197 88.933975 130.239883
260 0 1 3.639750 92.979408 127.172714
261 0 1 31.443943 91.950226 133.371994
262 0 1 16.680748 80.878578 128.385269
263 0 1 19.066353 85.714432 129.373703
264 0 1 41.377346 16.952105 125.691940
265 0 1 92.182030 61.238785 127.370651
266 0 1 35.618748 89.570107 116.954773
267 0 1 23.641685 85.837929 119.820023
268 0 1 80.558716 52.648411 135.420212
269 0 1 98.107155 22.232588 122.299858
270 0 1 78.257507 85.156670 125.226189
271 0 1 50.559776 23.288908 135.523300
272 0 1 57.244846 40.100441 136.836655
273 0 1 13.438839 77.740135 130.255768
274 0 1 27.907612 75.362717 122.353302
275 0 1 39.686775 75.439896 128.062622
276 0 1 53.032131 95.695763 130.004242
277 0 1 30.641790 96.125977 133.469620
278 0 1 21.118181 11.430048 131.836197
279 0 1 55.595299 27.060116 129.700134
280 0 1 14.485095 79.606331 134.677597
281 0 1 27.020288 91.517868 133.312256
282 0 1 46.751213 27.300060 121.610237
283 0 1 7.752846 66.440674 119.337418
284 0 1 34.232349 81.833496 123.294090
285 0 1 95.808395 20.948286 117.847153
286 0 1 60.079090 64.329941 125.332108
287 0 1 82.984428 13.655671 132.452148
288 0 1 41.263100 67.058807 132.451263
289 0 1 30.053331 70.180717 132.205566
290 0 1 99.473976 84.950432 118.917114
291 0 1 0.219081 2.280695 125.302872
292 0 1 98.436104 13.983368 131.799332
293 0 1 16.650436 42.683025 127.845779
294 0 1 98.463402 90.292923 132.747360
295 0 1 67.792267 28.012636 129.954010
296 0 1 19.834118 50.678673 127.302231
297 0 1 68.472832 89.889832 130.990295
298 0 1 21.521793 9.567743 127.514236
299 0 1 85.187943 22.390087 131.519043
300 0 1 19.963839 53.863083 133.186584
301 0 1 36.395153 80.848579 133.762589
302 0 1 42.671421 63.415485 117.941093
303 0 1 9.386272 20.213602 133.543503
304 0 1 36.447285 22.955761 133.580719
305 0 1 24.348326 62.255825 134.673904
306 0 1 93.212891 78.142052 122.557152
307 0 1 27.802542 89.830139 128.787292
308 0 1 98.750191 98.244270 135.036621
309 0 1 28.525200 21.809048 130.341995
310 0 1 38.467010 85.963760 127.305008
311 0 1 27.975662 99.828712 125.840836
312 0 1 94.982422 73.905609 130.806412
313 0 1 75.509163 15.320677 126.241676
314 0 1 56.291756 76.460640 126.427681
315 0 1 99.907341 76.290703 120.548538
316 0 1 30.627285 65.779457 134.392639
317 0 1 99.755821 28.625731 126.891861
318 0 1 7.966582 95.487610 130.184357
319 0 1 63.042767 22.693544 114.963318
320 0 1 14.465775 80.928352 121.515335
321 0 1 23.894468 70.987946 130.376190
322 0 1 36.112236 81.537285 129.361816
323 0 1 25.515089 50.774891 125.437981
324 0 1 20.823181 50.563694 134.514420
325 0 1 13.489521 66.865417 124.986389
326 0 1 99.682144 63.976898 134.800293
327 0 1 7.711779 38.360943 132.586197
328 0 1 48.931099 61.775803 126.731537
329 0 1 25.835157 77.610275 132.419525
330 0 1 22.205784 3.314228 136.214508
331 0 1 13.484449 28.865353 131.477875
332 0 1 40.004864 60.727245 129.018723
333 0 1 17.735790 90.704124 127.307297
334 0 1 96.905388 5.923574 126.840683
335 0 1 42.779026 83.656723 127.977417
336 0 1 1.571906 84.759689 127.727898
337 0 1 86.757484 82.489548 119.555473
338 0 1 36.927555 48.643311 135.384857
339 0 1 88.650169 14.575671 123.634392
340 0 1 70.213722 81.742592 132.253143
341 0 1 18.837540 82.388062 135.756454
342 0 1 34.369038 80.444908 127.864670
343 0 1 60.913910 13.415032 134.380569
344 0 1 24.669876 70.954514 123.447624
345 0 1 60.597450 70.499542 123.601173
346 0 1 23.766333 93.856529 134.197342
347 0 1 17.778000 9.038590 133.727905
348 0 1 39.106949 29.797771 128.420563
349 0 1 62.164715 92.900253 128.238129
350 0 1 38.350567 55.889011 133.051926
351 0 1 24.245468 99.002129 132.674545
352 0 1 33.080395 81.996559 118.314651
353 0 1 97.856270 97.105263 130.755768
354 0 1 2.057061 87.778618 128.276840
355 0 1 52.641346 87.579597 125.127922
356 0 1 60.392834 29.766319 130.098068
357 0 1 9.815289 64.036591 125.192604
358 0 1 48.102459 68.871338 127.212181
359 0 1 12.037169 69.109566 117.532333
360 0 1 39.631256 60.343094 126.248306
361 0 1 37.580036 37.010078 133.480637
362 0 1 30.749430 28.741814 131.694824
363 0 1 1.426555 8.221007 124.396568
364 0 1 95.696671 3.919704 119.735596
365 0 1 86.717545 4.145990 123.568726
366 0 1 1.008544 57.751072 134.686172
367 0 1 91.549232 23.020229 119.760635
368 0 1 20.706160 67.153366 131.173615
369 0 1 18.974159 36.873146 133.254471
370 0 1 7.961177 90.798653 133.227539
371 0 1 48.321590 64.202553 128.006241
372 0 1 6.926802 15.744208 122.821686
373 0 1 53.245586 18.504646 132.262909
374 0 1 9.945395 69.905327 128.084015
375 0 1 48.213085 8.197749 134.073334
376 0 1 38.069801 54.026134 130.577576
377 0 1 92.408844 53.188862 137.727982
378 0 1 79.856537 10.120354 127.535172
379 0 1 41.406372 26.311790 126.110214
380 0 1 23.203537 88.134804 121.764893
381 0 1 34.539066 96.885101 130.055130
382 0 1 67.246834 80.756866 132.755661
383 0 1 19.747074 89.850639 124.197304
384 0 1 8.013946 49.751099 125.903618
385 0 1 83.657249 67.722755 129.326172
386 0 1 99.624573 7.218970 129.867966
387 0 1 37.184826 14.539684 128.643250
388 0 1 57.281765 85.378677 131.021484
389 0 1 97.288666 7.338589 122.410233
390 0 1 73.083313 19.366817 128.609100
391 0 1 51.391354 5.068991 128.357315
392 0 1 99.895134 9.054534 119.239601
393 0 1 19.087553 92.388596 125.762924
394 0 1 76.653908 29.681641 135.516220
395 0 1 77.769073 99.905083 127.526909
396 0 1 34.960117 78.438126 132.808441
397 0 1 84.435654 77.524582 126.824524
398 0 1 28.840717 94.672249 123.741653
399 0 1 13.392291 96.825554 131.612549
400 0 1 40.743145 39.740639 135.400818
401 0 1 6.794951 54.987648 131.968674
402 0 1 22.503208 21.052868 123.881180
403 0 1 12.156721 2.920286 135.791504
404 0 1 93.819778 59.114796 127.047089
405 0 1 14.994393 18.560818 123.116287
406 0 1 36.594212 94.756767 129.120087
407 0 1 28.828938 98.068321 127.569359
408 0 1 38.257538 63.739315 133.242065
409 0 1 63.164982 0.044741 130.597610
410 0 1 46.426235 53.128250 132.037811
411 0 1 31.697702 54.339615 133.645630
412 0 1 86.539604 1.886446 122.052544
413 0 1 71.626801 13.920648 133.696716
414 0 1 15.690527 7.574171 119.726837
415 0 1 86.153778 37.842907 132.918335
416 0 1 17.906776 78.568390 129.348724
417 0 1 99.608162 93.103569 117.577255
418 0 1 34.956898 24.259405 135.258865
419 0 1 98.493340 94.428001 130.597733
420 0 1 20.286383 77.483788 127.912346
421 0 1 40.734024 39.540878 128.589844
422 0 1 28.030375 95.289185 127.549965
423 0 1 80.914978 1.174285 130.349106
424 0 1 85.599884 12.425551 131.409943
425 0 1 98.347610 92.907944 132.966568
426 0 1 88.577667 54.694973 131.829544
427 0 1 25.503860 88.865479 120.695732
428 0 1 88.954933 55.511616 135.326599
429 0 1 12.420605 4.232532 130.392136
430 0 1 0.873574 88.756058 117.076859
431 0 1 78.259605 58.560955 123.786308
432 0 1 7.255619 41.616982 135.344208
433 0 1 30.234751 66.956841 131.915665
434 0 1 91.213921 55.119347 130.938995
435 0 1 72.142227 95.295166 128.645645
436 0 1 89.819778 64.456329 130.184540
437 0 1 30.550396 66.920105 127.496872
438 0 1 1.547287 59.366642 126.134041
439 0 1 80.208199 62.058697 118.226311
440 0 1 34.426914 95.320717 127.392570
441 0 1 31.429251 51.972897 131.902191
442 0 1 66.327232 13.433758 124.148491
443 0 1 22.351095 71.566055 119.096649
444 0 1 42.629383 30.903152 133.891800
445 0 1 13.230434 70.390900 131.051010
446 0 1 91.288063 42.473907 133.038116
447 0 1 29.047421 47.497944 129.137375
448 0 1 59.043640 83.558662 134.754913
449 0 1 80.320030 3.912027 133.083420
450 0 1 12.790160 84.974709 124.618385
451 0 1 36.862057 21.207920 136.958603
452 0 1 86.201942 95.225235 123.917229
453 0 1 84.709755 84.035622 127.902481
454 0 1 0.414553 50.267273 128.776825
455 0 1 46.350796 68.392609 124.317841
456 0 1 17.463966 85.544807 126.669365
457 0 1 23.038715 2.000430 126.492599
458 0 1 13.207720 45.560204 124.389755
459 0 1 46.489605 37.429230 122.583244
460 0 1 5.070137 89.410416 121.098801
461 0 1 43.831257 57.416370 127.124229
462 0 1 64.863266 82.604553 126.381416
463 0 1 63.472504 80.192947 130.164917
464 0 1 1.353688 78.564796 127.483765
465 0 1 53.077335 75.901382 134.911057
466 0 1 79.643639 93.438904 130.836014
467 0 1 35.746025 75.885757 121.142097
468 0 1 96.797562 10.658421 128.396606
469 0 1 48.010464 73.523109 124.716270
470 0 1 44.319584 74.849136 129.133514
471 0 1 60.707890 90.820412 126.736343
472 0 1 50.099636 54.733452 127.233932
473 0 1 79.587036 82.674950 120.987839
474 0 1 15.594842 69.225258 131.957443
475 0 1 15.220002 84.081734 129.840714
476 0 1 5.179550 65.263641 126.104980
477 0 1 7.300612 98.034561 118.542801
478 0 1 77.102043 63.291660 134.299591
479 0 1 41.931767 86.245033 126.396858
480 0 1 71.982155 46.738201 133.028381
481 0 1 44.034107 15.859094 128.000351
482 0 1 78.224548 2.666092 124.618057
483 0 1 16.089094 1.324489 129.968399
484 0 1 58.048367 79.595421 130.394592
485 0 1 94.772728 84.975128 115.531471
486 0 1 32.272583 63.400887 128.227798
487 0 1 96.979439 75.815102 133.649689
488 0 1 15.752998 81.532631 124.564827
489 0 1 85.179398 53.680931 124.923950
490 0 1 14.183779 33.090405 133.882278
491 0 1 42.109226 26.026051 136.568726
492 0 1 13.905763 61.153042 125.293335
493 0 1 51.072754 82.728882 121.155701
494 0 1 97.492920 63.859264 122.861153
495 0 1 35.017410 45.025364 124.592705
496 0 1 91.995750 69.143913 123.032372
497 0 1 13.098382 65.014130 129.003769
498 0 1 12.276240 88.172096 122.395531
499 0 1 99.918213 55.755245 116.393967
500 0 1 38.208366 21.439684 134.741821
501 0 1 45.375935 94.329987 133.514664
502 0 1 84.855957 27.418278 131.682632
503 0 1 51.541519 50.494022 130.248489
504 0 1 21.168331 76.970367 130.541885
505 0 1 60.655472 91.451218 131.075821
506 0 1 7.064524 95.948540 123.325310
507 0 1 40.914726 34.427563 122.977112
508 0 1 5.429358 67.666046 132.862885
509 0 1 19.422697 28.513636 134.957138
510 0 1 22.705120 81.632133 129.923859
511 0 1 41.090355 3.729759 133.604858
512 0 1 60.828014 80.633163 131.509460
513 0 1 31.268497 9.973003 126.986961
514 0 1 56.409077 75.773674 134.517441
515 0 1 11.963895 4.783401 123.011940
516 0 1 49.877094 86.034851 134.494690
517 0 1 97.503357 31.907576 132.447662
518 0 1 29.130011 86.045311 119.752083
519 0 1 43.762859 56.462620 124.524139
520 0 1 16.714237 54.221382 129.078217
521 0 1 24.778957 2.055201 128.871002
522 0 1 78.214851 63.134460 129.149048
523 0 1 99.636887 83.933395 132.093170
524 0 1 15.562398 73.883545 124.115128
525 0 1 45.753830 17.634207 126.297195
526 0 1 45.029896 94.149193 124.979424
527 0 1 56.112106 21.093258 129.019318
528 0 1 16.293804 81.602234 135.089844
529 0 1 61.230778 21.605053 130.412186
530 0 1 69.485703 50.865562 130.150421
531 0 1 13.668959 64.962364 117.405182
532 0 1 2.528081 96.146606 120.176910
533 0 1 39.742722 10.882226 132.927765
534 0 1 12.189040 44.549881 127.249779
535 0 1 2.465587 70.931091 122.975388
536 0 1 20.310184 89.915649 128.541916
537 0 1 22.827179 92.642159 120.825264
538 0 1 52.012856 12.024294 134.725693
539 0 1 16.563683 9.758772 124.995964
540 0 1 26.465321 42.914135 128.291412
541 0 1 83.404152 82.032585 129.591537
542 0 1 38.573643 95.011360 131.127106
543 0 1 31.286224 14.542686 132.862183
544 0 1 82.218819 40.825825 132.216232
545 0 1 17.766258 89.767181 129.845215
546 0 1 34.463318 19.423473 126.361076
547 0 1 10.233745 55.412140 124.201454
548 0 1 11.556759 24.190943 132.036102
549 0 1 59.553493 83.404770 124.153175
550 0 1 26.701614 84.028122 119.567444
551 0 1 45.408031 2.550069 119.675484
552 0 1 43.870262 96.211418 129.204636
553 0 1 25.556772 88.185677 123.496597
554 0 1 12.860047 51.926392 129.772873
555 0 1 9.441813 78.739586 126.068634
556 0 1 3.970169 83.288567 125.453751
557 0 1 76.154739 28.186825 133.321991
558 0 1 24.403635 99.438187 129.964249
559 0 1 26.112045 11.226624 116.291992
560 0 1 46.343678 70.620354 129.201828
561 0 1 99.557632 16.063889 133.372391
562 0 1 26.389023 69.648407 120.899109
563 0 1 0.943994 13.791059 122.819466
564 0 1 11.628589 87.725937 134.057495
565 0 1 46.949360 76.812683 128.573700
566 0 1 58.434792 87.392509 129.375687
567 0 1 28.222187 50.550880 134.344254
568 0 1 75.116180 71.902870 127.077866
569 0 1 48.693035 81.080002 122.804428
570 0 1 32.147045 80.753075 129.813095
571 0 1 84.413330 95.787392 125.829079
572 0 1 41.794823 7.613374 126.807869
573 0 1 14.684512 38.240627 128.581009
574 0 1 25.910778 88.964523 133.779037
575 0 1 91.170715 68.618896 128.656647
576 0 1 99.381439 20.814688 118.187881
577 0 1 52.703609 86.918869 131.537766
578 0 1 58.497211 22.279610 136.445221
579 0 1 94.825340 65.735664 129.096100
580 0 1 27.060869 8.302629 130.598358
581 0 1 96.594452 95.214828 118.954971
582 0 1 16.629805 74.679390 118.470345
583 0 1 0.593768 22.322866 126.140579
584 0 1 62.996227 12.870791 125.066689
585 0 1 32.530777 63.311569 131.340576
586 0 1 79.598587 68.297508 125.415512
587 0 1 40.307297 81.454643 124.131760
588 0 1 47.596588 77.908760 121.019691
589 0 1 35.414482 98.985573 122.893234
590 0 1 45.997124 79.519516 122.597916
591 0 1 33.366417 49.366108 135.302841
592 0 1 24.415718 88.709023 125.934448
593 0 1 2.435869 6.443858 122.653954
594 0 1 41.366276 89.732315 122.750618
595 0 1 6.589363 19.691170 124.298622
596 0 1 75.745811 44.012817 125.804474
597 0 1 8.562417 85.062454 133.050735
598 0 1 18.039640 99.629631 127.402069
599 0 1 63.666550 16.577328 132.235123
600 0 1 12.981690 16.336977 123.798019
601 0 1 25.011133 82.076859 131.277405
602 0 1 70.007248 17.387968 134.909592
603 0 1 9.908557 11.149929 121.719719
604 0 1 95.705795 27.048157 121.994934
605 0 1 4.580207 34.600258 123.460861
606 0 1 48.097721 19.645638 135.099548
607 0 1 9.470738 10.752294 125.472900
608 0 1 39.960564 90.615990 128.896912
609 0 1 13.270033 99.700775 126.468727
610 0 1 31.599228 96.132767 124.639633
611 0 1 13.832579 65.746147 134.789215
612 0 1 31.884104 47.167248 134.313812
613 0 1 90.560051 14.745737 119.391571
614 0 1 12.184763 15.378685 121.014488
615 0 1 11.887456 69.057442 123.913727
616 0 1 13.094455 37.331074 136.949081
617 0 1 11.246757 18.085976 122.226318
618 0 1 13.128040 98.386803 129.135345
619 0 1 77.366737 89.191360 131.809509
620 0 1 18.611380 85.194901 133.932388
621 0 1 2.461590 57.427910 132.339783
622 0 1 90.254326 1.953724 126.186829
623 0 1 20.002272 6.607284 122.624382
624 0 1 97.022621 1.404961 128.293976
625 0 1 86.196457 95.733345 128.617172
626 0 1 23.443651 96.242416 132.712479
627 0 1 79.964691 85.875740 129.517593
628 0 1 28.699242 17.567574 131.061203
629 0 1 6.491404 17.162338 131.356125
630 0 1 7.055160 26.372522 121.050194
631 0 1 35.117332 24.992733 127.037895
632 0 1 99.361374 67.145111 125.118774
633 0 1 29.902967 35.618546 131.864777
634 0 1 13.419905 56.983063 130.920975
635 0 1 15.403537 4.700018 119.225487
636 0 1 79.907097 38.174629 129.309235
637 0 1 24.031984 18.096128 120.591599
638 0 1 10.500417 22.929955 124.354752
639 0 1 99.402054 18.282829 119.043022
640 0 1 6.912174 28.985741 121.719246
641 0 1 63.640274 47.563965 128.405670
642 0 1 76.914116 40.170834 129.129791
643 0 1 82.736488 29.022308 131.780914
644 0 1 21.940670 94.600624 121.997910
645 0 1 22.232159 16.746784 118.269104
646 0 1 97.617508 22.921669 117.539207
647 0 1 21.306561 17.209366 120.689720
648 0 1 24.464552 91.225418 134.111755
649 0 1 15.967010 84.313187 134.277298
650 0 1 7.941367 30.871721 119.816246
651 0 1 2.395038 98.771530 122.858696
652 0 1 16.148359 23.827299 120.794006
653 0 1 2.555811 94.212700 134.792145
654 0 1 8.196394 25.946644 131.291992
655 0 1 21.912071 74.951653 128.454544
656 0 1 11.123918 10.764883 135.595673
657 0 1 23.684486 13.273468 122.271301
658 0 1 23.951529 16.168343 123.474854
659 0 1 6.471742 69.498917 131.433014
660 0 1 16.936705 59.207333 134.209732
661 0 1 45.015999 31.431532 135.880173
662 0 1 25.953365 17.802387 121.952805
663 0 1 41.027088 7.835198 135.427536
664 0 1 33.600895 19.409903 133.661118
665 0 1 29.373928 45.152977 135.387482
666 0 1 20.946314 19.209259 122.282249
667 0 1 28.614660 19.547821 122.237251
668 0 1 9.830829 32.325264 126.206932
669 0 1 71.459305 7.812274 132.287125
670 0 1 0.330061 11.089214 122.652321
671 0 1 84.828346 80.087776 120.468979
672 0 1 35.771893 7.410128 116.508026
673 0 1 1.715231 25.321682 131.780045
674 0 1 0.065443 6.782049 121.404243
675 0 1 20.918179 36.662067 126.814957
676 0 1 11.827118 32.158787 121.606171
677 0 1 58.813457 19.733475 135.387970
678 0 1 13.616754 0.970755 123.662445
679 0 1 27.049229 6.963180 135.603165
680 0 1 51.750069 16.065653 117.987679
681 0 1 50.790680 2.911227 126.750809
682 0 1 42.730469 24.751028 127.824768
683 0 1 8.506774 17.526960 121.020409
684 0 1 25.333513 30.940651 131.813049
685 0 1 67.341171 84.971245 130.323959
686 0 1 7.936072 8.614673 120.460281
687 0 1 78.070862 55.712715 132.361374
688 0 1 77.283104 14.347608 128.296768
689 0 1 3.188577 33.840916 116.980682
690 0 1 3.550480 16.791204 126.436302
691 0 1 11.518899 13.427312 134.426483
692 0 1 95.071686 74.418571 128.075134
693 0 1 30.536274 77.394836 126.831200
694 0 1 24.160116 58.512741 124.391853
695 0 1 1.876252 18.890495 123.018822
696 0 1 29.783720 30.715240 129.908936
697 0 1 32.945122 91.829353 130.853210
698 0 1 83.666443 89.525826 127.155670
699 0 1 65.191017 28.588888 121.512840
700 0 1 46.000263 6.137907 131.457611
701 0 1 0.084532 68.935310 131.447205
702 0 1 62.498421 15.903768 126.128654
703 0 1 92.385994 84.606316 126.996391
704 0 1 19.187763 9.048457 121.051514
705 0 1 29.303438 38.683926 131.377792
706 0 1 26.155600 12.820302 127.300468
707 0 1 16.346127 17.219629 129.395859
708 0 1 37.618042 24.946060 135.263153
709 0 1 13.013233 15.105585 132.849716
710 0 1 94.178307 6.055457 134.021042
711 0 1 20.607473 86.320198 125.584061
712 0 1 35.266006 10.999096 132.460022
713 0 1 22.076393 6.645570 137.030792
714 0 1 53.216358 33.936874 132.024658
715 0 1 2.516783 80.170479 129.991318
716 0 1 2.080523 18.241190 128.087128
717 0 1 9.440219 14.175502 122.534134
718 0 1 98.436882 2.608606 119.420784
719 0 1 35.678997 2.984272 128.821381
720 0 1 94.761002 97.496475 119.924583
721 0 1 85.707603 61.144108 132.799622
722 0 1 14.386118 33.708725 124.702980
723 0 1 9.725113 34.934143 124.060349
724 0 1 33.213711 86.576950 122.972893
725 0 1 14.911217 14.080428 121.873474
726 0 1 32.670471 36.093010 132.532288
727 0 1 32.494061 82.460945 132.201004
728 0 1 95.438095 0.419814 130.018753
729 0 1 11.479084 34.455975 117.885880
730 0 1 18.942553 10.130744 136.057999
731 0 1 3.226392 4.564900 133.044983
732 0 1 39.763039 38.664356 125.864410
733 0 1 32.657410 3.035960 121.644241
734 0 1 92.670601 52.538109 135.118042
735 0 1 40.024223 51.259834 126.822144
736 0 1 97.475281 11.777391 133.013046
737 0 1 98.206444 33.468819 126.478340
738 0 1 18.884716 21.257959 128.863861
739 0 1 11.955055 41.926704 127.055771
740 0 1 8.930394 28.346069 119.962738
741 0 1 43.743919 43.528126 136.225342
742 0 1 57.094337 24.014139 120.859367
743 0 1 22.770878 11.962262 128.133820
744 0 1 78.731491 90.691216 124.296768
745 0 1 8.120458 15.135642 125.264664
746 0 1 19.416082 41.230438 129.470947
747 0 1 30.876160 11.425430 118.864937
748 0 1 17.104847 13.983038 123.918320
749 0 1 12.954423 26.311302 133.103394
750 0 1 32.177956 58.422001 129.229874
751 0 1 19.290226 46.928665 134.686234
752 0 1 41.573650 19.678614 129.064453
753 0 1 53.863419 36.395821 129.057739
754 0 1 76.413895 82.523209 128.938766
755 0 1 95.613777 17.893757 131.334061
756 0 1 91.179619 41.546196 130.406174
757 0 1 55.078064 86.422020 129.846176
758 0 1 11.264520 25.496683 123.033272
759 0 1 31.835434 8.812688 122.821777
760 0 1 25.766132 54.150578 132.680649
761 0 1 4.419149 68.954300 135.106445
762 0 1 25.342091 35.376541 128.827148
763 0 1 83.997452 4.034541 122.284439
764 0 1 22.076254 24.590611 125.524055
765 0 1 86.316833 42.951958 124.894073
766 0 1 54.493908 21.657625 123.106087