LAMMPS data file via MDAnalysis

       19500  atoms
           0  bonds
           0  angles
           0  dihedrals
           0  impropers

           2  atom types
           0  bond types
           0  angle types
           0  dihedral types
           0  improper types

0.000000 100.000000 xlo xhi
0.000000 100.000000 ylo yhi
0.000000 137.129745 zlo zhi


Masses

1 26.982000
2 15.999000

Atoms

1 0 1 12.821305 83.678101 130.832748
2 0 1 7.465277 10.184540 120.499802
3 0 1 23.576281 95.956017 129.334503
4 0 1 10.556131 88.656738 119.160370
5 0 1 19.091377 12.376500 132.733994
6 0 1 6.991261 7.081332 121.377151
7 0 1 19.247198 87.663925 119.911087
8 0 1 12.358231 98.781723 132.968597
9 0 1 3.952013 11.482018 127.048874
10 0 1 25.737963 9.062632 128.646301
11 0 1 25.742727 89.349487 134.847046
12 0 1 26.564959 95.771172 128.341293
13 0 1 23.133839 1.288615 130.917999
14 0 1 13.475859 96.508659 134.135727
15 0 1 96.922081 9.174061 121.052933
16 0 1 9.041480 2.580537 119.865433
17 0 1 5.928216 1.109370 129.773132
18 0 1 25.375067 93.264061 125.271072
19 0 1 3.313495 12.354816 122.683609
20 0 1 24.103289 96.819351 125.289169
21 0 1 11.970421 88.795044 125.018799
22 0 1 13.181005 5.900296 127.819504
23 0 1 25.538813 91.293861 120.860748
24 0 1 19.961727 3.578068 127.385178
25 0 1 31.126177 2.908349 120.613907
26 0 1 21.073956 2.778029 120.300858
27 0 1 0.283654 1.552010 117.683197
28 0 1 84.663521 10.399443 127.936539
29 0 1 25.207830 93.262283 122.641800
30 0 1 97.480820 8.122818 130.559647
31 0 1 24.266069 0.020849 121.194717
32 0 1 12.137081 3.065519 124.410278
33 0 1 29.836117 95.091209 121.697891
34 0 1 13.573781 13.752049 134.008240
35 0 1 28.295214 2.794693 120.434433
36 0 1 18.484474 2.451743 119.084991
37 0 1 33.869724 1.847976 119.895355
38 0 1 29.217848 5.250215 121.081055
39 0 1 21.843203 11.036051 119.382797
40 0 1 24.286869 88.445763 129.929626
41 0 1 0.462086 9.216340 121.056854
42 0 1 10.308551 10.575860 120.949646
43 0 1 2.686075 7.080680 120.708878
44 0 1 15.457475 15.149179 121.991241
45 0 1 8.907229 12.856079 120.692963
46 0 1 7.500317 15.801841 126.741959
47 0 1 11.573346 21.495951 119.519211
48 0 1 3.488282 21.760355 132.393265
49 0 1 29.662661 0.377360 120.745560
50 0 1 15.833133 22.084099 122.970535
51 0 1 16.981812 9.945081 128.947723
52 0 1 20.202663 9.251187 120.688370
53 0 1 2.438080 4.466753 121.385941
54 0 1 90.498596 3.191526 123.879166
55 0 1 12.553107 13.425221 121.490509
56 0 1 10.409650 15.411439 119.536911
57 0 1 14.115415 17.572710 121.571045
58 0 1 10.472873 14.694461 122.014999
59 0 1 9.618839 19.265957 123.167374
60 0 1 11.739158 19.521727 121.492172
61 0 1 13.992237 96.191795 124.833038
62 0 1 15.110727 21.676859 119.480072
63 0 1 22.573061 8.328221 119.756531
64 0 1 27.359278 30.146004 130.430237
65 0 1 31.072355 16.156605 132.305893
66 0 1 6.831063 36.210854 121.544266
67 0 1 7.911526 33.242424 118.640686
68 0 1 85.502655 23.608500 121.114151
69 0 1 7.268006 41.264503 127.291977
70 0 1 9.139731 16.948753 121.833282
71 0 1 5.330003 23.575220 120.360107
72 0 1 12.867550 18.914118 123.983856
73 0 1 4.151234 25.946489 119.406754
74 0 1 32.035938 27.798588 123.914505
75 0 1 6.946865 21.023485 120.421127
76 0 1 16.173544 26.569578 121.047150
77 0 1 13.463699 22.349352 121.705780
78 0 1 17.862822 22.427530 120.510727
79 0 1 4.614615 21.220909 122.069183
80 0 1 96.777054 94.416428 122.091812
81 0 1 19.392323 42.959595 128.944733
82 0 1 3.249123 34.112278 131.532608
83 0 1 24.534821 35.663483 126.847900
84 0 1 6.415074 31.682020 125.308899
85 0 1 4.431671 98.184265 121.506577
86 0 1 8.983356 4.682398 132.416794
87 0 1 91.610825 91.594322 132.681046
88 0 1 94.352303 98.249130 127.582703
89 0 1 99.667908 95.398926 130.508957
90 0 1 11.921354 9.111559 119.367874
91 0 1 20.285643 98.288582 134.538177
92 0 1 8.317968 98.890846 125.171783
93 0 1 18.596468 82.718246 128.314407
94 0 1 14.917322 82.617378 126.253174
95 0 1 16.646908 79.395241 129.472534
96 0 1 8.318415 78.694160 126.846283
97 0 1 21.744505 77.693817 121.238922
98 0 1 13.891980 9.407439 132.627914
99 0 1 18.665804 0.970112 121.653946
100 0 1 26.622068 92.752884 119.115524
101 0 1 29.077833 90.273125 122.974792
102 0 1 23.846888 6.982258 126.894043
103 0 1 15.848565 0.315038 130.270660
104 0 1 23.033344 86.429565 125.058640
105 0 1 15.060479 98.965553 126.116348
106 0 1 23.553043 95.193703 121.301117
107 0 1 10.763021 96.578186 133.825516
108 0 1 6.521288 96.337730 121.878815
109 0 1 20.551847 9.230500 127.556076
110 0 1 43.250504 98.163475 122.658829
111 0 1 5.021112 5.534144 120.114517
112 0 1 14.936899 12.626375 120.419327
113 0 1 3.068563 5.721678 130.973297
114 0 1 4.943835 11.363320 120.720108
115 0 1 22.130369 97.115341 127.389008
116 0 1 21.485319 0.114879 121.223099
117 0 1 12.431641 92.430031 122.380295
118 0 1 93.054199 18.263878 132.573761
119 0 1 7.776090 89.384880 119.440887
120 0 1 11.333051 1.178898 120.942413
121 0 1 23.466856 92.898445 119.699677
122 0 1 98.443550 99.951569 124.109528
123 0 1 15.868563 2.368525 117.777390
124 0 1 28.660091 0.058723 125.079346
125 0 1 7.065468 11.754880 122.761337
126 0 1 99.095734 4.268984 131.859344
127 0 1 29.552515 92.112320 128.403854
128 0 1 29.672003 6.304359 123.563019
129 0 1 33.590012 1.908637 122.641418
130 0 1 25.699444 14.790856 126.664566
131 0 1 15.467450 94.794243 130.450745
132 0 1 24.657969 8.004011 121.684509
133 0 1 25.867083 0.519119 131.482239
134 0 1 10.733271 0.454889 131.621429
135 0 1 19.277739 4.656290 124.273575
136 0 1 33.041031 99.280182 127.623291
137 0 1 0.275821 7.203889 131.366974
138 0 1 5.008229 8.618729 120.170105
139 0 1 98.511086 10.061924 122.966354
140 0 1 99.010902 4.485843 122.322266
141 0 1 4.894569 7.856978 133.014709
142 0 1 89.786392 27.722187 131.787842
143 0 1 5.835129 6.810828 126.590607
144 0 1 82.951096 14.897288 128.781754
145 0 1 8.542095 18.631720 127.209488
146 0 1 23.039650 97.649223 120.049423
147 0 1 12.031556 21.827497 128.566513
148 0 1 5.364363 1.984497 126.922562
149 0 1 0.894851 9.064765 124.038544
150 0 1 12.692445 89.867493 131.663712
151 0 1 23.483002 9.178888 124.328857
152 0 1 10.043550 9.132055 128.874725
153 0 1 27.149004 0.005661 121.231308
154 0 1 27.979040 7.787428 124.967224
155 0 1 31.369776 97.917747 121.959396
156 0 1 25.895958 11.021626 126.720612
157 0 1 15.597938 32.738743 132.710129
158 0 1 34.620846 4.260013 120.526367
159 0 1 31.966190 98.178894 131.974411
160 0 1 30.549376 9.097006 125.438721
161 0 1 14.086302 8.017385 120.800171
162 0 1 33.675117 90.068352 131.299957
163 0 1 96.237701 99.392670 125.908066
164 0 1 10.510667 0.852122 124.277115
165 0 1 87.135246 16.964972 128.204468
166 0 1 2.299168 6.645463 133.455490
167 0 1 7.641242 15.300677 120.217529
168 0 1 8.442616 38.756683 120.380966
169 0 1 14.738049 98.337784 123.233521
170 0 1 4.897083 16.017675 119.711548
171 0 1 2.992632 9.542474 122.147858
172 0 1 15.197754 16.747728 119.300873
173 0 1 8.692570 8.838422 122.571060
174 0 1 3.749979 29.685007 132.590530
175 0 1 25.611822 6.141775 124.674789
176 0 1 8.209457 26.019114 127.162674
177 0 1 4.287278 99.096573 128.271942
178 0 1 13.000776 10.749562 121.286575
179 0 1 18.058279 12.470143 130.003891
180 0 1 16.083393 14.525949 129.536392
181 0 1 22.271833 9.139249 129.716095
182 0 1 8.001218 14.566689 129.255722
183 0 1 15.738639 10.170771 121.784943
184 0 1 16.884127 5.761085 131.544952
185 0 1 17.096302 17.698877 121.724121
186 0 1 20.449863 5.250417 131.604156
187 0 1 20.953516 10.217116 123.707199
188 0 1 23.340727 9.869725 132.330032
189 0 1 3.481273 8.421750 126.825836
190 0 1 90.648987 27.296421 127.598892
191 0 1 17.094263 11.632933 125.024765
192 0 1 91.281494 7.809370 127.041199
193 0 1 92.793633 17.817410 122.461334
194 0 1 94.796402 15.659126 122.238739
195 0 1 97.090599 11.329518 125.311432
196 0 1 90.797188 32.058819 133.220932
197 0 1 11.958693 14.004156 124.020172
198 0 1 3.865793 21.732159 127.709915
199 0 1 18.896278 95.256615 125.179810
200 0 1 5.685079 15.914089 124.450592
201 0 1 13.564853 19.077999 119.023422
202 0 1 11.268469 5.721468 131.380066
203 0 1 23.214764 30.144808 128.143265
204 0 1 0.915216 10.073929 131.267624
205 0 1 25.584759 97.546715 121.223312
206 0 1 99.852394 30.819044 126.628708
207 0 1 7.094580 21.153208 123.564758
208 0 1 20.093555 5.178411 119.238403
209 0 1 5.637427 22.480824 130.176086
210 0 1 2.844373 33.590691 126.875977
211 0 1 33.986668 6.679758 125.018845
212 0 1 33.275684 10.232035 123.548508
213 0 1 24.407221 16.056618 129.267853
214 0 1 16.860439 25.578623 125.109818
215 0 1 96.369873 20.338173 125.200180
216 0 1 96.236023 23.051939 128.227158
217 0 1 0.960691 20.295475 128.623810
218 0 1 99.385826 31.070234 119.619431
219 0 1 99.929863 22.497709 122.410248
220 0 1 99.601425 31.065960 134.603409
221 0 1 8.054937 28.111652 122.816132
222 0 1 20.885847 15.792831 126.148438
223 0 1 7.540750 28.356819 120.192703
224 0 1 4.653440 17.600716 130.131134
225 0 1 5.289223 4.311977 125.553391
226 0 1 90.691872 18.009972 120.437408
227 0 1 7.952122 23.567730 121.222946
228 0 1 99.985626 22.691984 119.666840
229 0 1 3.486722 13.398689 128.877274
230 0 1 11.576663 45.713665 133.034683
231 0 1 10.875572 9.765364 123.885788
232 0 1 16.428534 34.285522 121.353104
233 0 1 2.772571 22.474211 123.674866
234 0 1 10.644845 26.417971 125.920517
235 0 1 1.762097 29.556976 130.575592
236 0 1 11.904511 23.682587 133.674225
237 0 1 7.308770 6.756248 128.814789
238 0 1 7.454570 17.395918 129.456360
239 0 1 1.212307 24.939428 123.272415
240 0 1 6.941204 33.746578 123.437439
241 0 1 91.910645 29.618193 132.279724
242 0 1 2.945142 5.449338 125.888931
243 0 1 5.621719 23.567356 123.182770
244 0 1 91.893875 24.590172 120.299347
245 0 1 98.303833 18.437586 129.279068
246 0 1 3.916014 38.184494 124.570084
247 0 1 17.536200 37.932556 131.142990
248 0 1 30.362715 33.171566 132.748535
249 0 1 4.409865 14.446178 126.429672
250 0 1 7.228909 28.447920 125.507751
251 0 1 9.154935 99.599602 129.365509
252 0 1 10.738028 17.631056 125.620789
253 0 1 27.424932 18.536812 123.822693
254 0 1 7.968696 97.252419 132.882126
255 0 1 89.920967 93.444855 126.052551
256 0 1 12.859761 18.203505 134.727402
257 0 1 13.115402 0.689664 123.058578
258 0 1 0.887671 81.369713 121.921356
259 0 1 31.671125 8.166484 123.044739
260 0 1 7.632394 96.010582 124.673203
261 0 1 9.141552 94.818512 127.529465
262 0 1 17.566158 99.746521 132.798492
263 0 1 17.493650 7.265857 129.219742
264 0 1 8.746565 11.922361 128.436905
265 0 1 91.547638 1.185921 122.191879
266 0 1 9.430030 6.182623 123.412231
267 0 1 4.643221 5.069978 133.400681
268 0 1 6.477369 95.073013 128.341553
269 0 1 13.257393 13.674718 129.970825
270 0 1 12.357586 86.074135 129.413696
271 0 1 27.896717 9.435568 133.247650
272 0 1 22.998051 92.407936 126.325882
273 0 1 34.316818 98.574097 130.073563
274 0 1 20.757639 97.407501 121.501038
275 0 1 29.272989 5.798260 126.667084
276 0 1 36.887978 94.975822 121.697891
277 0 1 31.983105 7.172694 127.120148
278 0 1 5.473443 18.775871 123.616074
279 0 1 20.299837 93.638535 135.152359
280 0 1 8.787436 96.991798 120.138840
281 0 1 86.449715 92.939934 119.498123
282 0 1 95.644272 16.732668 132.807297
283 0 1 8.078769 1.674760 125.579376
284 0 1 9.268867 95.209358 122.153976
285 0 1 95.643265 22.367346 132.889267
286 0 1 1.827572 96.735886 130.814346
287 0 1 77.612900 11.997414 124.522766
288 0 1 1.188253 11.919150 129.068771
289 0 1 28.505026 95.724663 130.835770
290 0 1 16.303165 9.127255 124.234100
291 0 1 98.797577 11.716824 132.618790
292 0 1 12.011677 95.216354 126.733032
293 0 1 16.226187 3.337756 120.523834
294 0 1 9.041576 7.414636 126.326584
295 0 1 17.367167 22.676516 129.358643
296 0 1 17.998327 93.733398 122.863892
297 0 1 16.442892 21.798693 134.223526
298 0 1 10.645359 97.005585 128.696167
299 0 1 8.353852 2.139749 128.309799
300 0 1 14.270380 3.404377 122.810333
301 0 1 25.750200 87.007339 133.576904
302 0 1 6.966763 3.782235 134.329391
303 0 1 12.800856 22.386343 131.358765
304 0 1 18.703928 20.955509 135.704254
305 0 1 38.702003 6.061315 128.812881
306 0 1 89.068100 91.697121 118.740585
307 0 1 19.339998 12.531422 123.807159
308 0 1 1.842591 6.378731 123.323746
309 0 1 8.684710 33.560940 125.602890
310 0 1 96.815117 3.423248 126.982666
311 0 1 17.353090 99.731537 123.970734
312 0 1 95.458046 19.538305 133.276184
313 0 1 0.249830 93.104477 124.237747
314 0 1 15.037042 1.850057 125.005798
315 0 1 89.312660 98.663658 121.567871
316 0 1 0.748387 14.430257 128.002960
317 0 1 4.044044 15.076625 131.096848
318 0 1 6.028885 13.037174 130.348663
319 0 1 3.405692 17.663345 125.266541
320 0 1 11.134888 3.997603 128.855103
321 0 1 13.896545 5.557959 135.209488
322 0 1 0.503056 97.725517 125.280762
323 0 1 8.638980 95.624886 135.113052
324 0 1 10.606142 24.173195 131.186813
325 0 1 25.419371 93.107834 127.951263
326 0 1 12.604345 7.179729 133.236252
327 0 1 14.685506 98.319824 128.953232
328 0 1 8.189364 4.618700 126.875031
329 0 1 99.988892 14.157312 132.824951
330 0 1 29.769329 26.168411 134.585190
331 0 1 13.458917 12.834650 127.457169
332 0 1 3.061554 3.475755 123.765015
333 0 1 1.565335 16.677942 132.254501
334 0 1 95.020996 18.358585 123.982254
335 0 1 89.139191 95.270386 132.187607
336 0 1 4.056377 20.201132 134.566208
337 0 1 13.617881 9.494473 123.608994
338 0 1 12.724021 0.768237 126.014404
339 0 1 2.318139 19.386877 132.376175
340 0 1 99.096359 5.761193 129.314789
341 0 1 16.520370 0.144730 119.513992
342 0 1 12.355668 98.535423 124.526794
343 0 1 8.893281 20.517908 133.172516
344 0 1 14.818478 10.614494 126.346405
345 0 1 22.908548 93.298706 128.899811
346 0 1 14.365159 5.356844 120.967133
347 0 1 5.340359 12.573334 124.724930
348 0 1 18.437740 20.175968 133.223465
349 0 1 3.311730 12.330074 131.428680
350 0 1 16.789206 97.834885 130.703751
351 0 1 14.236897 7.728635 125.845169
352 0 1 29.535683 97.371216 124.141678
353 0 1 43.847240 10.155335 133.346725
354 0 1 43.341648 87.760269 133.822418
355 0 1 30.985395 96.447990 126.545898
356 0 1 38.836430 15.767502 121.017334
357 0 1 54.297150 94.363075 130.523972
358 0 1 11.909150 91.242905 134.132172
359 0 1 18.060726 90.323425 126.918945
360 0 1 94.545563 3.895135 125.559967
361 0 1 95.139488 26.417463 130.076630
362 0 1 7.997324 9.919683 124.870773
363 0 1 1.082051 25.552343 126.253723
364 0 1 92.567810 20.292421 120.914062
365 0 1 9.597364 24.179502 118.952316
366 0 1 6.598966 15.696764 131.583954
367 0 1 3.276970 18.887400 127.785660
368 0 1 12.667725 94.140091 119.883606
369 0 1 8.902632 39.509590 125.971771
370 0 1 23.197666 97.886124 122.947632
371 0 1 6.408174 13.037600 127.522766
372 0 1 96.959328 10.292469 127.955460
373 0 1 7.272688 35.416225 129.289734
374 0 1 18.516291 3.516804 132.100845
375 0 1 25.778463 19.047680 126.698517
376 0 1 15.717875 8.443968 130.899872
377 0 1 27.047346 10.202759 120.903122
378 0 1 98.956703 13.629249 130.293793
379 0 1 24.894468 19.675940 132.262848
380 0 1 16.436235 7.526497 122.118637
381 0 1 20.121902 24.583536 133.263718
382 0 1 18.964657 14.164477 120.922272
383 0 1 18.637243 4.758372 129.455185
384 0 1 1.164047 0.487442 124.471375
385 0 1 80.681114 12.669174 124.251541
386 0 1 91.710991 19.887087 124.175644
387 0 1 98.897530 53.120117 125.956299
388 0 1 97.762527 33.293007 119.424881
389 0 1 1.191238 27.923817 121.589645
390 0 1 14.053692 25.556034 125.446732
391 0 1 21.572464 19.181145 124.870544
392 0 1 84.203125 27.899202 123.179123
393 0 1 9.246495 5.295663 120.763184
394 0 1 13.878718 14.637395 125.636017
395 0 1 97.521996 23.386238 121.311356
396 0 1 3.513399 31.618212 130.393539
397 0 1 9.252367 23.093102 123.597366
398 0 1 10.135587 28.601019 130.634644
399 0 1 32.087860 21.593733 125.684265
400 0 1 18.135677 32.906700 131.705948
401 0 1 16.213007 24.700750 130.925446
402 0 1 18.496363 20.243103 130.509094
403 0 1 7.292103 28.328484 130.199234
404 0 1 28.317251 27.726585 131.355682
405 0 1 8.352321 38.409325 128.419662
406 0 1 16.658855 2.805344 128.622894
407 0 1 20.143408 7.312951 129.504959
408 0 1 16.684208 16.984108 130.383621
409 0 1 17.014429 24.565084 133.981659
410 0 1 5.707325 18.005064 126.689957
411 0 1 13.933207 19.993694 127.632690
412 0 1 13.484272 38.062355 125.206711
413 0 1 5.105877 28.164104 121.280762
414 0 1 5.351171 22.885584 125.800751
415 0 1 14.650410 41.922405 133.620911
416 0 1 16.558306 13.363984 132.163986
417 0 1 1.277974 16.823843 123.331314
418 0 1 11.098838 31.113937 130.373825
419 0 1 17.034691 3.892765 125.887039
420 0 1 20.994276 23.003643 131.192352
421 0 1 29.574511 27.082256 127.749237
422 0 1 22.491676 30.259417 120.424622
423 0 1 92.038940 95.624275 124.624786
424 0 1 99.030647 99.611778 126.797119
425 0 1 13.637904 0.960159 132.108871
426 0 1 96.237198 97.364014 133.436264
427 0 1 10.147343 96.950592 125.810883
428 0 1 6.052886 95.915382 131.450424
429 0 1 97.928566 20.788542 134.334244
430 0 1 94.500717 11.362467 127.735367
431 0 1 7.448201 87.147675 134.585999
432 0 1 7.973440 0.158214 131.818680
433 0 1 1.876853 34.023460 133.966217
434 0 1 90.884750 95.530701 127.828644
435 0 1 23.245642 97.306091 134.996658
436 0 1 9.612187 89.095261 134.819427
437 0 1 20.922192 92.001877 130.618805
438 0 1 96.858154 7.479048 127.966705
439 0 1 15.144573 92.423157 135.344971
440 0 1 16.786909 88.242447 134.095688
441 0 1 2.300613 98.693680 132.783051
442 0 1 13.665118 25.623444 134.477493
443 0 1 28.362661 0.217418 129.696808
444 0 1 13.179376 80.506561 125.509140
445 0 1 16.142773 1.572839 134.369965
446 0 1 12.264396 83.225304 125.191864
447 0 1 33.449417 85.590012 127.345749
448 0 1 26.504513 97.976761 130.283554
449 0 1 79.800797 11.159303 126.343094
450 0 1 5.128609 5.179718 122.850601
451 0 1 93.808578 11.706941 130.376862
452 0 1 1.775389 18.009888 129.903229
453 0 1 99.378914 98.733849 129.621109
454 0 1 90.218079 9.267727 135.533859
455 0 1 82.992462 96.372154 126.830139
456 0 1 8.768051 13.090175 131.312317
457 0 1 18.658241 14.100814 125.910995
458 0 1 88.591827 11.888279 132.445450
459 0 1 17.313921 2.496266 123.481750
460 0 1 10.911931 8.826450 131.473053
461 0 1 2.769832 14.443789 133.484528
462 0 1 10.016027 10.486371 126.495850
463 0 1 32.876060 92.890350 131.821106
464 0 1 92.738068 5.444126 127.051620
465 0 1 20.804276 99.867943 130.354523
466 0 1 12.631505 98.035065 127.154785
467 0 1 31.274443 89.275833 121.426773
468 0 1 2.368358 83.422989 123.256241
469 0 1 31.043386 1.304226 126.584274
470 0 1 24.613001 3.534063 124.271347
471 0 1 17.531996 97.778206 135.251923
472 0 1 26.558147 1.847371 127.278214
473 0 1 23.628101 98.517593 130.223312
474 0 1 12.025066 98.318779 135.737076
475 0 1 4.556892 0.521470 132.063690
476 0 1 3.423010 4.183327 128.397339
477 0 1 89.202011 4.173755 130.926010
478 0 1 96.285706 1.748306 124.782135
479 0 1 99.527328 6.155309 133.858002
480 0 1 11.755960 7.011122 124.516281
481 0 1 10.595605 6.566400 128.944244
482 0 1 86.191376 12.605871 133.574768
483 0 1 9.169220 30.612377 134.533585
484 0 1 97.949409 15.217216 134.744476
485 0 1 4.066776 99.934402 134.812393
486 0 1 0.273100 17.224949 127.574524
487 0 1 5.992856 8.328071 130.518585
488 0 1 13.947337 2.478324 129.886108
489 0 1 99.118477 20.678661 124.182983
490 0 1 5.552853 15.397035 128.681824
491 0 1 90.157494 14.082456 132.400360
492 0 1 3.231475 20.382261 130.040543
493 0 1 18.155800 26.273155 132.202896
494 0 1 20.883362 19.246408 134.822098
495 0 1 19.071501 1.947396 125.350250
496 0 1 1.090109 9.958980 126.986099
497 0 1 18.819731 86.480148 133.711594
498 0 1 19.358065 98.792587 125.828629
499 0 1 8.435007 97.884521 122.734436
500 0 1 18.469696 0.361920 135.446869
501 0 1 88.993408 23.935049 134.618423
502 0 1 91.034042 16.825315 131.346451
503 0 1 86.396942 2.710346 131.855530
504 0 1 16.008947 5.708332 127.531921
505 0 1 1.562330 14.306619 130.640030
506 0 1 95.451752 18.650671 129.900803
507 0 1 9.875014 3.059127 122.656097
508 0 1 89.714005 18.666479 133.427414
509 0 1 12.338471 11.555712 125.188782
510 0 1 97.250748 12.392635 134.956253
511 0 1 9.935244 18.618740 130.254379
512 0 1 0.767219 11.759405 122.020432
513 0 1 19.063108 35.798939 132.676224
514 0 1 8.108375 10.221958 130.687531
515 0 1 13.780431 17.932610 132.121307
516 0 1 18.864094 20.648603 127.900635
517 0 1 24.087265 11.069114 129.747040
518 0 1 11.381239 4.632796 134.024231
519 0 1 18.706533 3.812418 121.518631
520 0 1 14.443021 17.535675 128.990387
521 0 1 16.293932 13.203122 127.168777
522 0 1 9.037505 28.404940 127.771927
523 0 1 0.315274 23.688345 133.928452
524 0 1 18.621721 5.986926 133.704636
525 0 1 31.341122 4.197978 127.549454
526 0 1 18.376486 15.608429 128.142639
527 0 1 92.807060 1.203246 128.988434
528 0 1 11.572550 8.101372 121.993881
529 0 1 98.832550 25.651085 135.676483
530 0 1 9.420230 7.987991 120.061340
531 0 1 13.895618 8.700870 135.157272
532 0 1 8.364082 0.621414 122.779602
533 0 1 99.883675 19.866709 131.060898
534 0 1 6.115232 24.809816 128.725388
535 0 1 16.440355 21.067053 126.941360
536 0 1 30.784319 3.852417 123.026489
537 0 1 97.844543 18.195974 123.698166
538 0 1 13.340793 23.134386 126.594803
539 0 1 97.045425 12.045424 120.565720
540 0 1 6.017020 5.465981 131.101013
541 0 1 13.216526 95.944099 129.172318
542 0 1 1.212539 21.050003 134.398224
543 0 1 11.995527 15.978656 133.081451
544 0 1 31.252966 95.557861 131.326691
545 0 1 34.075535 5.433355 127.783417
546 0 1 39.326508 31.109665 131.805908
547 0 1 15.211372 11.830372 129.331848
548 0 1 9.151305 20.847515 125.253448
549 0 1 40.990616 10.617570 134.057556
550 0 1 28.167675 2.555356 130.765701
551 0 1 39.810741 19.621702 124.379013
552 0 1 37.795952 13.887002 132.107620
553 0 1 96.687378 15.909735 124.649170
554 0 1 9.587761 15.867106 131.187637
555 0 1 6.442523 17.071438 121.890442
556 0 1 86.101936 5.365187 124.167419
557 0 1 99.657921 29.407160 132.406876
558 0 1 20.781065 21.884907 123.910294
559 0 1 5.778871 27.423895 127.849319
560 0 1 4.142643 7.574762 124.248642
561 0 1 2.667360 27.199215 132.086655
562 0 1 19.247189 93.193649 120.396286
563 0 1 8.069554 23.348104 126.344742
564 0 1 7.622694 9.275086 127.706970
565 0 1 9.404589 21.195566 127.991959
566 0 1 12.794810 26.339413 127.618149
567 0 1 13.333189 7.173221 130.411484
568 0 1 25.437653 8.086450 133.254715
569 0 1 9.758938 11.077184 132.959198
570 0 1 17.587923 26.542839 128.560944
571 0 1 20.962717 8.178154 132.063263
572 0 1 8.655196 7.324026 131.094498
573 0 1 38.542950 96.848213 133.326141
574 0 1 14.480721 15.138890 131.794235
575 0 1 11.618684 8.100945 126.889954
576 0 1 9.119164 33.403358 130.120941
577 0 1 11.695366 18.450054 128.256760
578 0 1 44.792255 28.392267 129.680298
579 0 1 88.388252 9.605547 131.096191
580 0 1 15.724028 59.919174 128.830444
581 0 1 92.233521 15.437646 120.624680
582 0 1 10.277665 99.651474 126.889679
583 0 1 99.304176 16.217422 125.118454
584 0 1 95.827248 13.866956 126.761017
585 0 1 7.728501 14.572766 122.937424
586 0 1 99.694145 40.872482 127.962448
587 0 1 23.005962 3.997652 130.765823
588 0 1 14.663709 23.570417 132.971146
589 0 1 23.006983 10.289168 121.927689
590 0 1 18.795584 11.635414 127.438873
591 0 1 27.589634 14.413090 129.062241
592 0 1 5.873424 25.431448 126.007080
593 0 1 6.879585 25.774755 119.076828
594 0 1 13.871146 20.736404 133.445694
595 0 1 7.381861 32.889790 128.008102
596 0 1 26.329216 33.368141 125.771652
597 0 1 16.539762 4.943468 122.880295
598 0 1 14.492656 25.066040 122.813782
599 0 1 13.262971 36.328251 118.747269
600 0 1 5.182574 33.635624 120.693115
601 0 1 94.226212 32.273243 134.687302
602 0 1 8.460567 28.188519 132.914749
603 0 1 9.259619 26.987209 118.617386
604 0 1 1.712969 53.189491 126.738770
605 0 1 4.613110 50.030228 122.367859
606 0 1 95.447784 16.279522 127.985291
607 0 1 12.641015 28.101482 122.616531
608 0 1 2.579601 45.334717 122.161835
609 0 1 12.888701 23.904087 119.495117
610 0 1 18.331284 27.377258 123.295837
611 0 1 14.964849 29.613146 121.307526
612 0 1 1.579280 43.569759 120.262589
613 0 1 93.531349 30.092382 119.297638
614 0 1 4.002143 35.905239 119.658890
615 0 1 89.645905 33.807293 124.392715
616 0 1 4.230375 36.082447 122.692215
617 0 1 1.510750 36.589016 120.910080
618 0 1 13.868351 34.740799 132.217438
619 0 1 6.313244 36.467346 124.276672
620 0 1 11.942768 34.797169 128.101486
621 0 1 23.559799 38.854187 124.207825
622 0 1 15.808949 31.814079 128.044022
623 0 1 13.714483 34.561394 120.989960
624 0 1 10.627660 26.287689 123.240936
625 0 1 3.098047 46.113934 133.684280
626 0 1 97.162636 41.000313 119.319107
627 0 1 99.031197 29.772306 122.186646
628 0 1 1.952488 42.168190 128.482101
629 0 1 14.736820 39.494179 122.123489
630 0 1 99.046326 46.449982 119.075317
631 0 1 15.586442 36.131866 126.017563
632 0 1 94.808502 28.100527 132.545486
633 0 1 24.476707 23.813473 124.876892
634 0 1 96.580971 45.592186 126.649246
635 0 1 19.775343 36.749313 123.648895
636 0 1 22.298418 40.707394 125.919724
637 0 1 17.376198 39.245834 120.799393
638 0 1 97.420311 37.968693 118.338089
639 0 1 98.991982 39.330677 120.190399
640 0 1 0.984165 48.192562 118.213394
641 0 1 2.894723 58.923519 125.914429
642 0 1 94.549583 43.397739 127.955093
643 0 1 20.364286 28.762970 121.581940
644 0 1 26.958996 30.258026 121.039719
645 0 1 15.369322 37.946514 119.547195
646 0 1 1.313596 50.443039 119.723618
647 0 1 15.289496 40.785709 119.554779
648 0 1 33.193302 27.520483 129.322754
649 0 1 25.140800 31.716684 129.517700
650 0 1 7.253537 41.066013 121.370148
651 0 1 95.043625 40.905941 126.843521
652 0 1 8.433387 54.570896 121.887680
653 0 1 1.387616 43.179790 131.592133
654 0 1 3.632225 24.862303 124.678528
655 0 1 20.966265 53.436104 127.536285
656 0 1 20.014301 22.861637 128.568268
657 0 1 12.840756 39.316696 118.980652
658 0 1 15.152332 43.673428 119.282410
659 0 1 1.125796 28.336906 125.913055
660 0 1 18.924709 42.340034 122.703598
661 0 1 29.611656 32.372017 124.547119
662 0 1 17.824833 42.453979 120.077988
663 0 1 27.412851 40.052357 126.865524
664 0 1 98.910690 37.914108 124.215729
665 0 1 13.905321 60.825119 127.052444
666 0 1 12.990212 42.425457 119.596268
667 0 1 19.713449 44.693287 121.130615
668 0 1 4.880095 48.852051 131.962219
669 0 1 21.134296 41.928711 121.118927
670 0 1 2.054854 20.933855 121.162674
671 0 1 18.169701 22.158060 124.812698
672 0 1 20.362621 38.597473 125.712250
673 0 1 2.447691 24.466951 132.183548
674 0 1 4.330826 18.814386 120.933929
675 0 1 3.033352 40.229755 126.624359
676 0 1 10.879633 23.740499 121.485748
677 0 1 21.720387 46.307236 131.829132
678 0 1 17.053143 24.340542 118.881699
679 0 1 14.720461 22.292109 128.967316
680 0 1 34.814968 29.705235 128.162415
681 0 1 14.990315 16.692352 124.094315
682 0 1 13.258162 25.467979 131.752121
683 0 1 0.048487 34.552845 122.047546
684 0 1 9.192596 43.987926 124.520279
685 0 1 2.689508 31.212547 125.667236
686 0 1 13.994722 40.622528 124.535843
687 0 1 1.813607 15.634247 125.931732
688 0 1 5.521197 34.568459 133.589966
689 0 1 97.204964 43.484173 128.320038
690 0 1 0.263838 48.050007 128.205750
691 0 1 5.846961 37.708897 129.391235
692 0 1 8.044343 23.053650 131.969208
693 0 1 94.871994 33.914322 130.774216
694 0 1 9.911045 16.233555 128.148438
695 0 1 10.249837 35.775574 132.496460
696 0 1 17.014893 42.993591 132.392776
697 0 1 99.912048 19.313967 122.039734
698 0 1 92.908958 27.338425 120.463303
699 0 1 9.496174 21.283815 121.353851
700 0 1 27.043755 27.382627 128.803726
701 0 1 8.743793 35.901699 119.524231
702 0 1 18.614933 39.325333 123.387802
703 0 1 15.746017 18.602623 126.088806
704 0 1 19.547379 24.545694 124.706131
705 0 1 30.569437 29.684240 125.023193
706 0 1 12.049439 39.290184 128.958511
707 0 1 31.866926 29.983683 122.292252
708 0 1 25.791924 18.960598 129.687775
709 0 1 11.910290 34.125126 133.972137
710 0 1 16.523743 35.452763 131.861649
711 0 1 7.060763 25.605328 132.778687
712 0 1 97.477882 35.003963 135.289429
713 0 1 17.342958 35.719048 123.780853
714 0 1 13.075604 55.182316 124.660492
715 0 1 25.089457 30.930819 125.248413
716 0 1 97.421227 47.830631 127.733353
717 0 1 5.287534 28.300465 118.376038
718 0 1 94.225861 21.064060 123.326431
719 0 1 4.772148 38.986675 131.534439
720 0 1 90.916550 25.793060 135.954773
721 0 1 4.436579 35.313122 128.424545
722 0 1 96.433701 33.674156 124.195801
723 0 1 99.536423 43.091560 129.646057
724 0 1 19.040491 47.705029 131.158813
725 0 1 5.029345 34.909809 117.213211
726 0 1 14.842520 48.025108 128.701294
727 0 1 18.913113 44.992943 130.664825
728 0 1 14.471251 32.261734 122.546448
729 0 1 17.417070 34.198978 127.120605
730 0 1 20.595665 29.722984 128.967453
731 0 1 19.832081 30.778849 131.339462
732 0 1 28.818375 39.603386 129.416687
733 0 1 29.988064 29.205555 120.407654
734 0 1 26.365988 29.088354 123.709595
735 0 1 1.508862 45.659775 127.647156
736 0 1 11.190349 45.117096 126.518219
737 0 1 97.843567 41.884441 126.036713
738 0 1 0.216124 45.788929 132.948166
739 0 1 3.148598 38.843258 119.462494
740 0 1 98.509598 49.161884 119.253738
741 0 1 21.720947 37.950027 133.232971
742 0 1 86.453835 22.278774 134.806030
743 0 1 11.757457 47.777912 129.725784
744 0 1 99.422798 27.235685 123.703415
745 0 1 2.308180 23.671062 120.914673
746 0 1 94.603767 38.597153 128.718689
747 0 1 93.152649 41.740288 119.498596
748 0 1 17.074537 33.043602 123.822662
749 0 1 26.400717 34.688354 123.195618
750 0 1 95.881706 40.983723 132.093231
751 0 1 0.690580 31.888527 121.989441
752 0 1 16.621798 36.484631 128.664383
753 0 1 10.284713 21.510498 130.671341
754 0 1 32.725029 38.005219 122.213791
755 0 1 0.411354 32.658993 131.030014
756 0 1 22.053272 45.451458 125.122925
757 0 1 39.023148 46.574482 130.538467
758 0 1 6.845448 44.512253 133.018890
759 0 1 17.921085 37.375866 126.041489
760 0 1 29.126335 24.533792 122.625610
761 0 1 94.721687 36.146038 134.815231
762 0 1 0.060258 43.586426 126.799545
763 0 1 94.424576 38.376190 125.686798
764 0 1 13.264942 45.500179 121.711166
765 0 1 0.317392 46.788979 123.453766
766 0 1 14.562696 43.303787 128.692505
767 0 1 91.295647 39.854809 135.116089
768 0 1 85.364716 52.157085 126.871658
769 0 1 1.474404 31.711237 128.532455
770 0 1 10.455358 47.310181 121.492447
771 0 1 23.394642 28.897717 124.914398
772 0 1 6.920770 50.277061 128.357254