LAMMPS data file via MDAnalysis

       17500  atoms
           0  bonds
           0  angles
           0  dihedrals
           0  impropers

           1  atom types
           0  bond types
           0  angle types
           0  dihedral types
           0  improper types

0.000000 100.000000 xlo xhi
0.000000 100.000000 ylo yhi
0.000000 99.862389 zlo zhi


Masses

1 26.982000

Atoms

1 0 1 2.777295 0.781131 87.391762
2 0 1 0.781131 2.777295 87.391762
3 0 1 6.772694 0.782899 87.394585
4 0 1 4.772630 2.782241 87.386826
5 0 1 10.772682 0.782940 87.389557
6 0 1 8.769860 2.782621 87.391182
7 0 1 14.774113 0.783709 87.383224
8 0 1 12.772587 2.780187 87.388809
9 0 1 18.775696 0.783190 87.386269
10 0 1 16.775995 2.781929 87.384575
11 0 1 22.771835 0.783482 87.382011
12 0 1 20.773787 2.782429 87.385674
13 0 1 24.768278 2.781549 87.382919
14 0 1 2.782241 4.772630 87.386826
15 0 1 0.782899 6.772694 87.394585
16 0 1 6.772168 4.777713 87.391335
17 0 1 4.777713 6.772168 87.391335
18 0 1 10.769290 4.779200 87.388390
19 0 1 8.771599 6.773088 87.389847
20 0 1 14.773439 4.780255 87.384415
21 0 1 12.771156 6.776339 87.388489
22 0 1 18.772779 4.779342 87.384605
23 0 1 16.772043 6.776739 87.384254
24 0 1 22.770678 4.780044 87.382858
25 0 1 20.771646 6.777084 87.385284
26 0 1 24.767204 6.776379 87.382881
27 0 1 2.782621 8.769860 87.391182
28 0 1 0.782940 10.772682 87.389557
29 0 1 6.773088 8.771599 87.389847
30 0 1 4.779200 10.769290 87.388390
31 0 1 10.772308 8.773685 87.388130
32 0 1 8.773685 10.772308 87.388130
33 0 1 14.772889 8.776517 87.384941
34 0 1 12.773834 10.775067 87.386238
35 0 1 18.772787 8.775822 87.385399
36 0 1 16.775621 10.775881 87.386124
37 0 1 22.769077 8.775199 87.384491
38 0 1 20.772600 10.771628 87.387611
39 0 1 24.766388 10.770796 87.385361
40 0 1 2.780187 12.772587 87.388809
41 0 1 0.783709 14.774113 87.383224
42 0 1 6.776339 12.771156 87.388489
43 0 1 4.780255 14.773439 87.384415
44 0 1 10.775067 12.773834 87.386238
45 0 1 8.776517 14.772889 87.384941
46 0 1 14.776491 12.776782 87.387169
47 0 1 12.776782 14.776491 87.387169
48 0 1 18.773174 12.771543 87.388695
49 0 1 16.773584 14.771796 87.387627
50 0 1 22.770750 12.770564 87.386948
51 0 1 20.772402 14.767864 87.387451
52 0 1 24.768032 14.769464 87.384041
53 0 1 2.781929 16.775995 87.384575
54 0 1 0.783190 18.775696 87.386269
55 0 1 6.776739 16.772043 87.384254
56 0 1 4.779342 18.772779 87.384605
57 0 1 10.775881 16.775621 87.386124
58 0 1 8.775822 18.772787 87.385399
59 0 1 14.771796 16.773584 87.387627
60 0 1 12.771543 18.773174 87.388695
61 0 1 18.770361 16.768999 87.389053
62 0 1 16.768999 18.770361 87.389053
63 0 1 22.770178 16.768738 87.385071
64 0 1 20.770729 18.769306 87.387627
65 0 1 24.768291 18.773764 87.383858
66 0 1 2.782429 20.773787 87.385674
67 0 1 0.783482 22.771835 87.382011
68 0 1 6.777084 20.771646 87.385284
69 0 1 4.780044 22.770678 87.382858
70 0 1 10.771628 20.772600 87.387611
71 0 1 8.775199 22.769077 87.384491
72 0 1 14.767864 20.772402 87.387451
73 0 1 12.770564 22.770750 87.386948
74 0 1 18.769306 20.770729 87.387627
75 0 1 16.768738 22.770178 87.385071
76 0 1 22.772438 20.774469 87.383156
77 0 1 20.774469 22.772438 87.383156
78 0 1 24.769720 22.774519 87.377449
79 0 1 2.781549 24.768278 87.382919
80 0 1 6.776379 24.767204 87.382881
81 0 1 10.770796 24.766388 87.385361
82 0 1 14.769464 24.768032 87.384041
83 0 1 18.773764 24.768291 87.383858
84 0 1 22.774519 24.769720 87.377449
85 0 1 0.779344 0.779344 89.436913
86 0 1 2.777682 2.777682 89.433685
87 0 1 2.785938 0.784411 91.472687
88 0 1 0.784411 2.785938 91.472687
89 0 1 4.772883 0.778670 89.431587
90 0 1 6.775194 2.779100 89.432144
91 0 1 6.783313 0.782630 91.465706
92 0 1 4.782182 2.783475 91.468277
93 0 1 8.777102 0.782478 89.431175
94 0 1 10.774067 2.778777 89.430267
95 0 1 10.778534 0.784549 91.464973
96 0 1 8.778008 2.782358 91.461403
97 0 1 12.777018 0.784283 89.427147
98 0 1 14.774639 2.782702 89.426041
99 0 1 14.773537 0.784391 91.463905
100 0 1 12.777319 2.782047 91.462761
101 0 1 16.774929 0.783068 89.429482
102 0 1 18.773384 2.781159 89.429237
103 0 1 18.773790 0.781613 91.464676
104 0 1 16.772612 2.779427 91.465645
105 0 1 20.772951 0.781933 89.428047
106 0 1 22.773014 2.781588 89.425720
107 0 1 22.775286 0.782940 91.463821
108 0 1 20.776384 2.781548 91.464241
109 0 1 24.770008 0.783251 89.424835
110 0 1 24.772144 2.781004 91.462029
111 0 1 0.778670 4.772883 89.431587
112 0 1 2.779100 6.775194 89.432144
113 0 1 2.783475 4.782182 91.468277
114 0 1 0.782630 6.783313 91.465706
115 0 1 4.772412 4.772412 89.430397
116 0 1 6.774928 6.774928 89.429520
117 0 1 6.777332 4.779851 91.464302
118 0 1 4.779851 6.777332 91.464302
119 0 1 8.772361 4.775219 89.430511
120 0 1 10.771422 6.777672 89.428764
121 0 1 10.775683 4.779352 91.465416
122 0 1 8.775335 6.776477 91.462463
123 0 1 12.774140 4.780364 89.427849
124 0 1 14.770618 6.779095 89.425423
125 0 1 14.774226 4.778634 91.465080
126 0 1 12.776939 6.777750 91.464378
127 0 1 16.771839 4.780124 89.427170
128 0 1 18.771875 6.777084 89.430779
129 0 1 18.774269 4.775442 91.469444
130 0 1 16.772646 6.774841 91.469925
131 0 1 20.774736 4.781082 89.427437
132 0 1 22.771379 6.775698 89.428864
133 0 1 22.775078 4.779263 91.463936
134 0 1 20.775976 6.775887 91.464500
135 0 1 24.769337 4.779876 89.425903
136 0 1 24.770849 6.777645 91.464996
137 0 1 0.782478 8.777102 89.431175
138 0 1 2.778777 10.774067 89.430267
139 0 1 2.782358 8.778008 91.461403
140 0 1 0.784549 10.778534 91.464973
141 0 1 4.775219 8.772361 89.430511
142 0 1 6.777672 10.771422 89.428764
143 0 1 6.776477 8.775335 91.462463
144 0 1 4.779352 10.775683 91.465416
145 0 1 8.773735 8.773735 89.429298
146 0 1 10.775801 10.775801 89.427795
147 0 1 10.779264 8.779757 91.462440
148 0 1 8.779757 10.779264 91.462440
149 0 1 12.772415 8.778345 89.425941
150 0 1 14.774301 10.776429 89.428268
151 0 1 14.774986 8.775299 91.465134
152 0 1 12.778307 10.778022 91.464851
153 0 1 16.772079 8.775317 89.429672
154 0 1 18.773760 10.770660 89.430511
155 0 1 18.774048 8.773636 91.464630
156 0 1 16.774002 10.773515 91.465370
157 0 1 20.772058 8.772263 89.429512
158 0 1 22.772264 10.771810 89.427742
159 0 1 22.773659 8.778021 91.463264
160 0 1 20.776083 10.776775 91.463196
161 0 1 24.769508 8.775378 89.426254
162 0 1 24.770479 10.778414 91.463318
163 0 1 0.784283 12.777018 89.427147
164 0 1 2.782702 14.774639 89.426041
165 0 1 2.782047 12.777319 91.462761
166 0 1 0.784391 14.773537 91.463905
167 0 1 4.780364 12.774140 89.427849
168 0 1 6.779095 14.770618 89.425423
169 0 1 6.777750 12.776939 91.464378
170 0 1 4.778634 14.774226 91.465080
171 0 1 8.778345 12.772415 89.425941
172 0 1 10.776429 14.774301 89.428268
173 0 1 10.778022 12.778307 91.464851
174 0 1 8.775299 14.774986 91.465134
175 0 1 12.775848 12.775848 89.428825
176 0 1 14.771852 14.771852 89.430061
177 0 1 14.773486 12.772799 91.464020
178 0 1 12.772799 14.773486 91.464020
179 0 1 16.773710 12.770808 89.430023
180 0 1 18.772373 14.768404 89.431885
181 0 1 18.772671 12.773394 91.466026
182 0 1 16.771582 14.770864 91.466705
183 0 1 20.774406 12.769690 89.429840
184 0 1 22.770750 14.768838 89.429169
185 0 1 22.773088 12.775730 91.464233
186 0 1 20.772263 14.771798 91.463486
187 0 1 24.768980 12.772024 89.426819
188 0 1 24.769278 14.773288 91.465485
189 0 1 0.783068 16.774929 89.429482
190 0 1 2.781159 18.773384 89.429237
191 0 1 2.779427 16.772612 91.465645
192 0 1 0.781613 18.773790 91.464676
193 0 1 4.780124 16.771839 89.427170
194 0 1 6.777084 18.771875 89.430779
195 0 1 6.774841 16.772646 91.469925
196 0 1 4.775442 18.774269 91.469444
197 0 1 8.775317 16.772079 89.429672
198 0 1 10.770660 18.773760 89.430511
199 0 1 10.773515 16.774002 91.465370
200 0 1 8.773636 18.774048 91.464630
201 0 1 12.770808 16.773710 89.430023
202 0 1 14.768404 18.772373 89.431885
203 0 1 14.770864 16.771582 91.466705
204 0 1 12.773394 18.772671 91.466026
205 0 1 16.770060 16.770060 89.431946
206 0 1 18.769165 18.769165 89.430710
207 0 1 18.769108 16.771105 91.467094
208 0 1 16.771105 18.769108 91.467094
209 0 1 20.771475 16.768118 89.430206
210 0 1 22.771574 18.772444 89.428185
211 0 1 22.771250 16.772657 91.468147
212 0 1 20.772400 18.771488 91.466476
213 0 1 24.769060 16.773085 89.427078
214 0 1 24.771709 18.775398 91.465523
215 0 1 0.781933 20.772951 89.428047
216 0 1 2.781588 22.773014 89.425720
217 0 1 2.781548 20.776384 91.464241
218 0 1 0.782940 22.775286 91.463821
219 0 1 4.781082 20.774736 89.427437
220 0 1 6.775698 22.771379 89.428864
221 0 1 6.775887 20.775976 91.464500
222 0 1 4.779263 22.775078 91.463936
223 0 1 8.772263 20.772058 89.429512
224 0 1 10.771810 22.772264 89.427742
225 0 1 10.776775 20.776083 91.463196
226 0 1 8.778021 22.773659 91.463264
227 0 1 12.769690 20.774406 89.429840
228 0 1 14.768838 22.770750 89.429169
229 0 1 14.771798 20.772263 91.463486
230 0 1 12.775730 22.773088 91.464233
231 0 1 16.768118 20.771475 89.430206
232 0 1 18.772444 22.771574 89.428185
233 0 1 18.771488 20.772400 91.466476
234 0 1 16.772657 22.771250 91.468147
235 0 1 20.775040 20.775040 89.428360
236 0 1 22.774622 22.774622 89.427765
237 0 1 22.775707 20.776043 91.466171
238 0 1 20.776043 22.775707 91.466171
239 0 1 24.769575 20.777000 89.426979
240 0 1 24.774858 22.778582 91.465233
241 0 1 0.783251 24.770008 89.424835
242 0 1 2.781004 24.772144 91.462029
243 0 1 4.779876 24.769337 89.425903
244 0 1 6.777645 24.770849 91.464996
245 0 1 8.775378 24.769508 89.426254
246 0 1 10.778414 24.770479 91.463318
247 0 1 12.772024 24.768980 89.426819
248 0 1 14.773288 24.769278 91.465485
249 0 1 16.773085 24.769060 89.427078
250 0 1 18.775398 24.771709 91.465523
251 0 1 20.777000 24.769575 89.426979
252 0 1 22.778582 24.774858 91.465233
253 0 1 24.772360 24.772360 89.423431
254 0 1 0.786636 0.786636 93.519196
255 0 1 2.784344 2.784344 93.519196
256 0 1 2.785938 0.784411 95.565704
257 0 1 0.784411 2.785938 95.565704
258 0 1 4.788507 0.785282 93.519196
259 0 1 6.785141 2.786024 93.519196
260 0 1 6.783313 0.782630 95.572685
261 0 1 4.782182 2.783475 95.570114
262 0 1 8.778688 0.781098 93.519196
263 0 1 10.774025 2.779188 93.519196
264 0 1 10.778534 0.784549 95.573418
265 0 1 8.778008 2.782358 95.576988
266 0 1 12.771739 0.782582 93.519196
267 0 1 14.770717 2.778708 93.519196
268 0 1 14.773537 0.784391 95.574486
269 0 1 12.777319 2.782047 95.575630
270 0 1 16.774254 0.779527 93.519196
271 0 1 18.778156 2.776243 93.519196
272 0 1 18.773790 0.781613 95.573715
273 0 1 16.772612 2.779427 95.572746
274 0 1 20.780651 0.781614 93.519196
275 0 1 22.773697 2.777251 93.519196
276 0 1 22.775286 0.782940 95.574570
277 0 1 20.776384 2.781548 95.574150
278 0 1 24.770857 0.782443 93.519196
279 0 1 24.772144 2.781004 95.576363
280 0 1 0.785282 4.788507 93.519196
281 0 1 2.786024 6.785141 93.519196
282 0 1 2.783475 4.782182 95.570114
283 0 1 0.782630 6.783313 95.572685
284 0 1 4.787302 4.787302 93.519196
285 0 1 6.778135 6.778135 93.519196
286 0 1 6.777332 4.779851 95.574089
287 0 1 4.779851 6.777332 95.574089
288 0 1 8.776463 4.781496 93.519196
289 0 1 10.775389 6.776870 93.519196
290 0 1 10.775683 4.779352 95.572975
291 0 1 8.775335 6.776477 95.575928
292 0 1 12.772155 4.779580 93.519196
293 0 1 14.773216 6.777198 93.519196
294 0 1 14.774226 4.778634 95.573311
295 0 1 12.776939 6.777750 95.574005
296 0 1 16.776073 4.774909 93.519196
297 0 1 18.778660 6.774186 93.519196
298 0 1 18.774269 4.775442 95.568947
299 0 1 16.772646 6.774841 95.568466
300 0 1 20.776011 4.775761 93.519196
301 0 1 22.773371 6.779554 93.519196
302 0 1 22.775078 4.779263 95.574455
303 0 1 20.775976 6.775887 95.573891
304 0 1 24.770342 4.779230 93.519196
305 0 1 24.770849 6.777645 95.573395
306 0 1 0.781098 8.778688 93.519196
307 0 1 2.779188 10.774025 93.519196
308 0 1 2.782358 8.778008 95.576988
309 0 1 0.784549 10.778534 95.573418
310 0 1 4.781496 8.776463 93.519196
311 0 1 6.776870 10.775389 93.519196
312 0 1 6.776477 8.775335 95.575928
313 0 1 4.779352 10.775683 95.572975
314 0 1 8.779987 8.779987 93.519196
315 0 1 10.777061 10.777061 93.519196
316 0 1 10.779264 8.779757 95.575951
317 0 1 8.779757 10.779264 95.575951
318 0 1 12.774623 8.776670 93.519196
319 0 1 14.778190 10.774587 93.519196
320 0 1 14.774986 8.775299 95.573257
321 0 1 12.778307 10.778022 95.573540
322 0 1 16.779615 8.775313 93.519196
323 0 1 18.781601 10.775973 93.519196
324 0 1 18.774048 8.773636 95.573761
325 0 1 16.774002 10.773515 95.573021
326 0 1 20.777718 8.777837 93.519196
327 0 1 22.769106 10.775149 93.519196
328 0 1 22.773659 8.778021 95.575127
329 0 1 20.776083 10.776775 95.575195
330 0 1 24.767874 8.779652 93.519196
331 0 1 24.770479 10.778414 95.575073
332 0 1 0.782582 12.771739 93.519196
333 0 1 2.778708 14.770717 93.519196
334 0 1 2.782047 12.777319 95.575630
335 0 1 0.784391 14.773537 95.574486
336 0 1 4.779580 12.772155 93.519196
337 0 1 6.777198 14.773216 93.519196
338 0 1 6.777750 12.776939 95.574005
339 0 1 4.778634 14.774226 95.573311
340 0 1 8.776670 12.774623 93.519196
341 0 1 10.774587 14.778190 93.519196
342 0 1 10.778022 12.778307 95.573540
343 0 1 8.775299 14.774986 95.573257
344 0 1 12.774964 12.774964 93.519196
345 0 1 14.770746 14.770746 93.519196
346 0 1 14.773486 12.772799 95.574371
347 0 1 12.772799 14.773486 95.574371
348 0 1 16.778662 12.772680 93.519196
349 0 1 18.770193 14.769410 93.519196
350 0 1 18.772671 12.773394 95.572365
351 0 1 16.771582 14.770864 95.571686
352 0 1 20.772209 12.771977 93.519196
353 0 1 22.767179 14.773804 93.519196
354 0 1 22.773088 12.775730 95.574158
355 0 1 20.772263 14.771798 95.574905
356 0 1 24.768423 12.775883 93.519196
357 0 1 24.769278 14.773288 95.572906
358 0 1 0.779527 16.774254 93.519196
359 0 1 2.776243 18.778156 93.519196
360 0 1 2.779427 16.772612 95.572746
361 0 1 0.781613 18.773790 95.573715
362 0 1 4.774909 16.776073 93.519196
363 0 1 6.774186 18.778660 93.519196
364 0 1 6.774841 16.772646 95.568466
365 0 1 4.775442 18.774269 95.568947
366 0 1 8.775313 16.779615 93.519196
367 0 1 10.775973 18.781601 93.519196
368 0 1 10.773515 16.774002 95.573021
369 0 1 8.773636 18.774048 95.573761
370 0 1 12.772680 16.778662 93.519196
371 0 1 14.769410 18.770193 93.519196
372 0 1 14.770864 16.771582 95.571686
373 0 1 12.773394 18.772671 95.572365
374 0 1 16.770166 16.770166 93.519196
375 0 1 18.772108 18.772108 93.519196
376 0 1 18.769108 16.771105 95.571297
377 0 1 16.771105 18.769108 95.571297
378 0 1 20.768370 16.772491 93.519196
379 0 1 22.772238 18.776247 93.519196
380 0 1 22.771250 16.772657 95.570244
381 0 1 20.772400 18.771488 95.571915
382 0 1 24.769651 16.776613 93.519196
383 0 1 24.771709 18.775398 95.572868
384 0 1 0.781614 20.780651 93.519196
385 0 1 2.777251 22.773697 93.519196
386 0 1 2.781548 20.776384 95.574150
387 0 1 0.782940 22.775286 95.574570
388 0 1 4.775761 20.776011 93.519196
389 0 1 6.779554 22.773371 93.519196
390 0 1 6.775887 20.775976 95.573891
391 0 1 4.779263 22.775078 95.574455
392 0 1 8.777837 20.777718 93.519196
393 0 1 10.775149 22.769106 93.519196
394 0 1 10.776775 20.776083 95.575195
395 0 1 8.778021 22.773659 95.575127
396 0 1 12.771977 20.772209 93.519196
397 0 1 14.773804 22.767179 93.519196
398 0 1 14.771798 20.772263 95.574905
399 0 1 12.775730 22.773088 95.574158
400 0 1 16.772491 20.768370 93.519196
401 0 1 18.776247 22.772238 93.519196
402 0 1 18.771488 20.772400 95.571915
403 0 1 16.772657 22.771250 95.570244
404 0 1 20.773127 20.773127 93.519196
405 0 1 22.779102 22.779102 93.519196
406 0 1 22.775707 20.776043 95.572212
407 0 1 20.776043 22.775707 95.572212
408 0 1 24.776665 20.779425 93.519196
409 0 1 24.774858 22.778582 95.573158
410 0 1 0.782443 24.770857 93.519196
411 0 1 2.781004 24.772144 95.576363
412 0 1 4.779230 24.770342 93.519196
413 0 1 6.777645 24.770849 95.573395
414 0 1 8.779652 24.767874 93.519196
415 0 1 10.778414 24.770479 95.575073
416 0 1 12.775883 24.768423 93.519196
417 0 1 14.773288 24.769278 95.572906
418 0 1 16.776613 24.769651 93.519196
419 0 1 18.775398 24.771709 95.572868
420 0 1 20.779425 24.776665 93.519196
421 0 1 22.778582 24.774858 95.573158
422 0 1 24.776178 24.776178 93.519196
423 0 1 0.779344 0.779344 97.601479
424 0 1 2.777682 2.777682 97.604706
425 0 1 2.777295 0.781131 99.646629
426 0 1 0.781131 2.777295 99.646629
427 0 1 4.772883 0.778670 97.606804
428 0 1 6.775194 2.779100 97.606247
429 0 1 6.772694 0.782899 99.643806
430 0 1 4.772630 2.782241 99.651566
431 0 1 8.777102 0.782478 97.607216
432 0 1 10.774067 2.778777 97.608124
433 0 1 10.772682 0.782940 99.648834
434 0 1 8.769860 2.782621 99.647209
435 0 1 12.777018 0.784283 97.611244
436 0 1 14.774639 2.782702 97.612350
437 0 1 14.774113 0.783709 99.655167
438 0 1 12.772587 2.780187 99.649582
439 0 1 16.774929 0.783068 97.608902
440 0 1 18.773384 2.781159 97.609154
441 0 1 18.775696 0.783190 99.652122
442 0 1 16.775995 2.781929 99.653816
443 0 1 20.772951 0.781933 97.610344
444 0 1 22.773014 2.781588 97.612671
445 0 1 22.771835 0.783482 99.656380
446 0 1 20.773787 2.782429 99.652718
447 0 1 24.770008 0.783251 97.613556
448 0 1 24.768278 2.781549 99.655472
449 0 1 0.778670 4.772883 97.606804
450 0 1 2.779100 6.775194 97.606247
451 0 1 2.782241 4.772630 99.651566
452 0 1 0.782899 6.772694 99.643806
453 0 1 4.772412 4.772412 97.607994
454 0 1 6.774928 6.774928 97.608871
455 0 1 6.772168 4.777713 99.647057
456 0 1 4.777713 6.772168 99.647057
457 0 1 8.772361 4.775219 97.607880
458 0 1 10.771422 6.777672 97.609627
459 0 1 10.769290 4.779200 99.650002
460 0 1 8.771599 6.773088 99.648544
461 0 1 12.774140 4.780364 97.610542
462 0 1 14.770618 6.779095 97.612968
463 0 1 14.773439 4.780255 99.653976
464 0 1 12.771156 6.776339 99.649902
465 0 1 16.771839 4.780124 97.611221
466 0 1 18.771875 6.777084 97.607613
467 0 1 18.772779 4.779342 99.653786
468 0 1 16.772043 6.776739 99.654137
469 0 1 20.774736 4.781082 97.610954
470 0 1 22.771379 6.775698 97.609528
471 0 1 22.770678 4.780044 99.655533
472 0 1 20.771646 6.777084 99.653107
473 0 1 24.769337 4.779876 97.612488
474 0 1 24.767204 6.776379 99.655510
475 0 1 0.782478 8.777102 97.607216
476 0 1 2.778777 10.774067 97.608124
477 0 1 2.782621 8.769860 99.647209
478 0 1 0.782940 10.772682 99.648834
479 0 1 4.775219 8.772361 97.607880
480 0 1 6.777672 10.771422 97.609627
481 0 1 6.773088 8.771599 99.648544
482 0 1 4.779200 10.769290 99.650002
483 0 1 8.773735 8.773735 97.609093
484 0 1 10.775801 10.775801 97.610596
485 0 1 10.772308 8.773685 99.650261
486 0 1 8.773685 10.772308 99.650261
487 0 1 12.772415 8.778345 97.612450
488 0 1 14.774301 10.776429 97.610123
489 0 1 14.772889 8.776517 99.653450
490 0 1 12.773834 10.775067 99.652153
491 0 1 16.772079 8.775317 97.608719
492 0 1 18.773760 10.770660 97.607880
493 0 1 18.772787 8.775822 99.652992
494 0 1 16.775621 10.775881 99.652267
495 0 1 20.772058 8.772263 97.608879
496 0 1 22.772264 10.771810 97.610649
497 0 1 22.769077 8.775199 99.653900
498 0 1 20.772600 10.771628 99.650780
499 0 1 24.769508 8.775378 97.612137
500 0 1 24.766388 10.770796 99.653030
501 0 1 0.784283 12.777018 97.611244
502 0 1 2.782702 14.774639 97.612350
503 0 1 2.780187 12.772587 99.649582
504 0 1 0.783709 14.774113 99.655167
505 0 1 4.780364 12.774140 97.610542
506 0 1 6.779095 14.770618 97.612968
507 0 1 6.776339 12.771156 99.649902
508 0 1 4.780255 14.773439 99.653976
509 0 1 8.778345 12.772415 97.612450
510 0 1 10.776429 14.774301 97.610123
511 0 1 10.775067 12.773834 99.652153
512 0 1 8.776517 14.772889 99.653450
513 0 1 12.775848 12.775848 97.609566
514 0 1 14.771852 14.771852 97.608330
515 0 1 14.776491 12.776782 99.651222
516 0 1 12.776782 14.776491 99.651222
517 0 1 16.773710 12.770808 97.608368
518 0 1 18.772373 14.768404 97.606506
519 0 1 18.773174 12.771543 99.649696
520 0 1 16.773584 14.771796 99.650764
521 0 1 20.774406 12.769690 97.608551
522 0 1 22.770750 14.768838 97.609222
523 0 1 22.770750 12.770564 99.651443
524 0 1 20.772402 14.767864 99.650940
525 0 1 24.768980 12.772024 97.611572
526 0 1 24.768032 14.769464 99.654350
527 0 1 0.783068 16.774929 97.608902
528 0 1 2.781159 18.773384 97.609154
529 0 1 2.781929 16.775995 99.653816
530 0 1 0.783190 18.775696 99.652122
531 0 1 4.780124 16.771839 97.611221
532 0 1 6.777084 18.771875 97.607613
533 0 1 6.776739 16.772043 99.654137
534 0 1 4.779342 18.772779 99.653786
535 0 1 8.775317 16.772079 97.608719
536 0 1 10.770660 18.773760 97.607880
537 0 1 10.775881 16.775621 99.652267
538 0 1 8.775822 18.772787 99.652992
539 0 1 12.770808 16.773710 97.608368
540 0 1 14.768404 18.772373 97.606506
541 0 1 14.771796 16.773584 99.650764
542 0 1 12.771543 18.773174 99.649696
543 0 1 16.770060 16.770060 97.606445
544 0 1 18.769165 18.769165 97.607681
545 0 1 18.770361 16.768999 99.649338
546 0 1 16.768999 18.770361 99.649338
547 0 1 20.771475 16.768118 97.608185
548 0 1 22.771574 18.772444 97.610207
549 0 1 22.770178 16.768738 99.653320
550 0 1 20.770729 18.769306 99.650764
551 0 1 24.769060 16.773085 97.611313
552 0 1 24.768291 18.773764 99.654533
553 0 1 0.781933 20.772951 97.610344
554 0 1 2.781588 22.773014 97.612671
555 0 1 2.782429 20.773787 99.652718
556 0 1 0.783482 22.771835 99.656380
557 0 1 4.781082 20.774736 97.610954
558 0 1 6.775698 22.771379 97.609528
559 0 1 6.777084 20.771646 99.653107
560 0 1 4.780044 22.770678 99.655533
561 0 1 8.772263 20.772058 97.608879
562 0 1 10.771810 22.772264 97.610649
563 0 1 10.771628 20.772600 99.650780
564 0 1 8.775199 22.769077 99.653900
565 0 1 12.769690 20.774406 97.608551
566 0 1 14.768838 22.770750 97.609222
567 0 1 14.767864 20.772402 99.650940
568 0 1 12.770564 22.770750 99.651443
569 0 1 16.768118 20.771475 97.608185
570 0 1 18.772444 22.771574 97.610207
571 0 1 18.769306 20.770729 99.650764
572 0 1 16.768738 22.770178 99.653320
573 0 1 20.775040 20.775040 97.610031
574 0 1 22.774622 22.774622 97.610626
575 0 1 22.772438 20.774469 99.655235
576 0 1 20.774469 22.772438 99.655235
577 0 1 24.769575 20.777000 97.611412
578 0 1 24.769720 22.774519 99.660942
579 0 1 0.783251 24.770008 97.613556
580 0 1 2.781549 24.768278 99.655472
581 0 1 4.779876 24.769337 97.612488
582 0 1 6.776379 24.767204 99.655510
583 0 1 8.775378 24.769508 97.612137
584 0 1 10.770796 24.766388 99.653030
585 0 1 12.772024 24.768980 97.611572
586 0 1 14.769464 24.768032 99.654350
587 0 1 16.773085 24.769060 97.611313
588 0 1 18.773764 24.768291 99.654533
589 0 1 20.777000 24.769575 97.611412
590 0 1 22.774519 24.769720 99.660942
591 0 1 24.772360 24.772360 97.614960
592 0 1 0.783744 26.763918 87.383713
593 0 1 4.780617 26.764292 87.382957
594 0 1 8.774713 26.763248 87.384476
595 0 1 12.769912 26.764133 87.385117
596 0 1 16.770947 26.764631 87.384628
597 0 1 20.776325 26.764469 87.380630
598 0 1 24.770699 26.765469 87.376366
599 0 1 2.781950 28.761158 87.386909
600 0 1 0.783446 30.756521 87.388565
601 0 1 6.777853 28.761438 87.386055
602 0 1 4.780784 30.757038 87.387062
603 0 1 10.772447 28.760269 87.386131
604 0 1 8.775962 30.756680 87.386932
605 0 1 14.771232 28.760786 87.385681
606 0 1 12.771199 30.755329 87.387238
607 0 1 18.775270 28.759207 87.384338
608 0 1 16.772383 30.754786 87.385918
609 0 1 22.775476 28.759653 87.378929
610 0 1 20.778111 30.754236 87.381882
611 0 1 24.771141 30.755100 87.377396
612 0 1 2.782800 32.754295 87.389931
613 0 1 0.783856 34.751461 87.391159
614 0 1 6.778362 32.753124 87.388306
615 0 1 4.782336 34.750809 87.389801
616 0 1 10.773682 32.751205 87.388367
617 0 1 8.778270 34.749630 87.389671
618 0 1 14.771538 32.750053 87.387100
619 0 1 12.773520 34.748455 87.389526
620 0 1 18.776642 32.749859 87.385353
621 0 1 16.774092 34.748589 87.388130
622 0 1 22.775938 32.750851 87.379318
623 0 1 20.779337 34.749397 87.383713
624 0 1 24.770462 34.750351 87.378708
625 0 1 2.784649 36.749290 87.393166
626 0 1 0.783737 38.751175 87.396515
627 0 1 6.781254 36.749741 87.392860
628 0 1 4.781673 38.751766 87.395134
629 0 1 10.776520 36.749760 87.393036
630 0 1 8.777785 38.752842 87.395012
631 0 1 14.773438 36.749660 87.390869
632 0 1 12.773571 38.753967 87.394753
633 0 1 18.778648 36.751320 87.388901
634 0 1 16.773607 38.754517 87.393242
635 0 1 22.775831 36.751938 87.382835
636 0 1 20.777691 38.754925 87.388382
637 0 1 24.767376 38.754910 87.383743
638 0 1 2.781986 40.755741 87.399696
639 0 1 0.783197 42.762577 87.402130
640 0 1 6.776801 40.756741 87.398232
641 0 1 4.778825 42.763012 87.400307
642 0 1 10.772618 40.758476 87.397537
643 0 1 8.773067 42.763466 87.399689
644 0 1 14.770724 40.759506 87.395653
645 0 1 12.768597 42.764381 87.398895
646 0 1 18.775572 40.760685 87.393867
647 0 1 16.769876 42.765717 87.397301
648 0 1 22.771923 40.760471 87.387985
649 0 1 20.774784 42.766499 87.393211
650 0 1 24.765905 42.766964 87.389328
651 0 1 2.781162 44.769318 87.403923
652 0 1 0.783140 46.775303 87.405518
653 0 1 6.774955 44.769623 87.402657
654 0 1 4.778508 46.775410 87.403854
655 0 1 10.769605 44.770176 87.401833
656 0 1 8.772272 46.775513 87.403290
657 0 1 14.766911 44.770424 87.399940
658 0 1 12.767186 46.775730 87.402748
659 0 1 18.771811 44.771030 87.398262
660 0 1 16.767939 46.776119 87.401154
661 0 1 22.770250 44.771896 87.392891
662 0 1 20.772707 46.776367 87.397186
663 0 1 24.764328 46.776699 87.393303
664 0 1 2.781091 48.781052 87.406036
665 0 1 6.774796 48.781136 87.404762
666 0 1 10.769320 48.781235 87.404106
667 0 1 14.766604 48.781322 87.402191
668 0 1 18.771427 48.781368 87.400673
669 0 1 22.769754 48.781658 87.395302
670 0 1 2.781560 26.764071 89.426033
671 0 1 0.782669 26.765104 91.462868
672 0 1 6.777973 26.764544 89.427956
673 0 1 4.779891 26.764217 91.464653
674 0 1 10.773091 26.763372 89.426323
675 0 1 8.778672 26.763597 91.463303
676 0 1 14.772622 26.765457 89.427284
677 0 1 12.776412 26.764885 91.464417
678 0 1 18.774879 26.764513 89.427147
679 0 1 16.775253 26.765699 91.464874
680 0 1 22.777819 26.768393 89.424362
681 0 1 20.779734 26.769373 91.463356
682 0 1 24.776690 26.770782 91.460670
683 0 1 0.783493 28.760403 89.428459
684 0 1 2.782979 30.754251 89.431030
685 0 1 2.781475 28.759075 91.464470
686 0 1 0.782976 30.753021 91.466583
687 0 1 4.780560 28.760279 89.428970
688 0 1 6.778989 30.754183 89.431786
689 0 1 6.778994 28.757826 91.466759
690 0 1 4.781200 30.752800 91.467529
691 0 1 8.775620 28.758900 89.428658
692 0 1 10.775054 30.753937 89.430435
693 0 1 10.778938 28.758205 91.465225
694 0 1 8.779080 30.752916 91.466309
695 0 1 12.772699 28.759388 89.429031
696 0 1 14.772621 30.753736 89.430038
697 0 1 14.775229 28.759327 91.464211
698 0 1 12.776023 30.753698 91.464996
699 0 1 16.772930 28.759071 89.428581
700 0 1 18.776722 30.754627 89.428940
701 0 1 18.777569 28.760796 91.465706
702 0 1 16.775448 30.754652 91.466774
703 0 1 20.778761 28.760838 89.427155
704 0 1 22.777487 30.756350 89.424850
705 0 1 22.779646 28.762964 91.464355
706 0 1 20.779228 30.757284 91.464027
707 0 1 24.772676 28.761831 89.422363
708 0 1 24.774914 30.757460 91.462875
709 0 1 0.783416 32.751900 89.432190
710 0 1 2.783130 34.750210 89.433052
711 0 1 2.781860 32.750130 91.465874
712 0 1 0.782836 34.749889 91.466560
713 0 1 4.780962 32.751396 89.431549
714 0 1 6.780394 34.749046 89.433067
715 0 1 6.779632 32.750252 91.468239
716 0 1 4.780616 34.749332 91.467827
717 0 1 8.776937 32.750584 89.431740
718 0 1 10.776875 34.748646 89.431267
719 0 1 10.779482 32.750137 91.465202
720 0 1 8.779421 34.749012 91.465286
721 0 1 12.772727 32.749435 89.430557
722 0 1 14.774190 34.749100 89.429596
723 0 1 14.775246 32.750935 91.464485
724 0 1 12.776480 34.749416 91.464668
725 0 1 16.773983 32.750755 89.428612
726 0 1 18.777294 34.750378 89.428787
727 0 1 18.776865 32.752583 91.464859
728 0 1 16.775747 34.750866 91.466003
729 0 1 20.778765 32.751575 89.426910
730 0 1 22.776506 34.751163 89.425613
731 0 1 22.777798 32.753227 91.464592
732 0 1 20.778442 34.751911 91.464180
733 0 1 24.772100 32.752087 89.423492
734 0 1 24.774708 34.752396 91.462959
735 0 1 0.783793 36.748596 89.433212
736 0 1 2.783213 38.750732 89.435318
737 0 1 2.783679 36.748779 91.465874
738 0 1 0.783314 38.749313 91.468025
739 0 1 4.783644 36.749020 89.432671
740 0 1 6.780717 38.751392 89.435219
741 0 1 6.782576 36.749249 91.468658
742 0 1 4.781312 38.749878 91.469482
743 0 1 8.780472 36.749695 89.433426
744 0 1 10.776985 38.752335 89.433525
745 0 1 10.781837 36.749779 91.465851
746 0 1 8.781213 38.751221 91.466522
747 0 1 12.775570 36.749695 89.431198
748 0 1 14.774590 38.753555 89.431854
749 0 1 14.776877 36.751015 91.465012
750 0 1 12.778561 38.752335 91.466560
751 0 1 16.775600 36.751381 89.429649
752 0 1 18.776834 38.753685 89.431244
753 0 1 18.777430 36.751995 91.465858
754 0 1 16.777437 38.753151 91.467110
755 0 1 20.779110 36.751858 89.428505
756 0 1 22.775707 38.753120 89.428658
757 0 1 22.778435 36.752132 91.465790
758 0 1 20.779671 38.752789 91.465706
759 0 1 24.771473 36.751167 89.425789
760 0 1 24.774185 38.751736 91.463707
761 0 1 0.783345 40.753567 89.436989
762 0 1 2.781226 42.760071 89.439682
763 0 1 2.781594 40.752113 91.467659
764 0 1 0.782871 42.757778 91.470055
765 0 1 4.779956 40.753899 89.436272
766 0 1 6.777143 42.760685 89.439034
767 0 1 6.778629 40.752972 91.470421
768 0 1 4.778783 42.758018 91.471336
769 0 1 8.776269 40.755348 89.436646
770 0 1 10.772424 42.761185 89.437088
771 0 1 10.778337 40.754112 91.467628
772 0 1 8.777375 42.758942 91.467857
773 0 1 12.772911 40.756721 89.434143
774 0 1 14.770361 42.762421 89.435814
775 0 1 14.775268 40.755489 91.465904
776 0 1 12.774384 42.759754 91.467896
777 0 1 16.773205 40.757431 89.433167
778 0 1 18.773949 42.763306 89.435081
779 0 1 18.776783 40.755745 91.467384
780 0 1 16.773617 42.760330 91.468842
781 0 1 20.777508 40.757744 89.432198
782 0 1 22.773220 42.763348 89.432808
783 0 1 22.777596 40.755600 91.466721
784 0 1 20.777229 42.760963 91.467300
785 0 1 24.769449 40.757156 89.428940
786 0 1 24.772459 42.760895 91.466003
787 0 1 0.783225 44.767193 89.441063
788 0 1 2.781211 46.773823 89.443016
789 0 1 2.781538 44.765324 91.469986
790 0 1 0.782993 46.772297 91.472305
791 0 1 4.779338 44.767395 89.440346
792 0 1 6.776850 46.773880 89.442505
793 0 1 6.778230 44.765472 91.472359
794 0 1 4.779225 46.772312 91.473465
795 0 1 8.774515 44.767628 89.440536
796 0 1 10.772132 46.774044 89.440529