LAMMPS data file via MDAnalysis

       21500  atoms
           0  bonds
           0  angles
           0  dihedrals
           0  impropers

           2  atom types
           0  bond types
           0  angle types
           0  dihedral types
           0  improper types

0.000000 100.000000 xlo xhi
0.000000 100.000000 ylo yhi
0.000000 130.799118 zlo zhi


Masses

1 26.982000
2 15.999000

Atoms

1 0 1 32.305187 79.298119 124.020561
2 0 1 7.854849 9.384067 109.784889
3 0 1 8.188708 4.684413 125.616150
4 0 1 19.667747 84.257828 111.714058
5 0 1 16.457003 7.014997 121.488091
6 0 1 92.050247 89.872459 120.865929
7 0 1 37.200012 77.932861 118.703430
8 0 1 24.966396 82.724258 123.293007
9 0 1 16.456673 4.448129 118.337311
10 0 1 20.281469 31.206726 111.943535
11 0 1 37.341698 62.023594 127.189369
12 0 1 35.535858 96.304298 119.971512
13 0 1 16.782700 1.419500 113.985649
14 0 1 14.032737 6.748353 122.721458
15 0 1 5.334640 3.509245 111.704376
16 0 1 11.376711 92.843468 110.287788
17 0 1 10.466202 65.472946 119.338089
18 0 1 16.412758 97.577400 111.467117
19 0 1 97.304665 21.551067 113.018784
20 0 1 37.116577 73.550606 120.645927
21 0 1 9.831631 98.129120 116.781700
22 0 1 8.028840 77.338478 123.216377
23 0 1 29.432663 88.207581 116.569847
24 0 1 99.435074 84.315453 121.684425
25 0 1 39.071949 1.283214 111.356270
26 0 1 26.368914 12.530045 110.787476
27 0 1 5.373231 97.848137 109.164467
28 0 1 64.041756 15.987317 122.698402
29 0 1 28.393641 87.284889 118.913551
30 0 1 9.040255 2.336348 116.262428
31 0 1 25.455942 7.126185 118.682106
32 0 1 16.130791 4.792329 115.465073
33 0 1 34.620811 96.502174 114.154037
34 0 1 6.858586 23.296555 123.041901
35 0 1 37.173325 2.692330 111.929405
36 0 1 20.598085 10.384656 123.034203
37 0 1 41.877682 1.355555 111.925751
38 0 1 39.721783 3.987138 112.033020
39 0 1 35.508888 8.164911 110.374779
40 0 1 19.390984 88.389046 124.664986
41 0 1 3.483775 1.368873 111.750298
42 0 1 19.943666 1.602669 117.920021
43 0 1 2.571692 5.803633 115.635483
44 0 1 5.748540 12.446120 112.976646
45 0 1 8.930985 11.733191 110.178780
46 0 1 14.604529 37.263485 125.374191
47 0 1 11.889585 18.464241 109.884148
48 0 1 86.278786 45.240353 113.451057
49 0 1 38.920177 98.465668 116.250069
50 0 1 12.633089 22.458002 113.016418
51 0 1 25.253050 26.759045 109.944275
52 0 1 35.271168 10.277674 107.472855
53 0 1 13.176373 9.703692 112.297356
54 0 1 3.728405 97.458008 117.784554
55 0 1 7.082295 15.039637 113.718262
56 0 1 9.523479 14.346581 109.264351
57 0 1 6.968881 17.279234 111.730667
58 0 1 6.898215 14.396273 110.795021
59 0 1 5.618573 17.441324 109.450218
60 0 1 8.670184 18.930553 110.429878
61 0 1 32.396164 7.611487 113.611969
62 0 1 11.608955 21.471951 109.173210
63 0 1 35.386719 10.838173 110.033043
64 0 1 65.002083 8.388247 124.487213
65 0 1 49.865566 20.627216 122.561577
66 0 1 10.265047 34.746471 113.533165
67 0 1 6.932966 30.504272 110.315071
68 0 1 75.324883 14.834606 123.301331
69 0 1 92.745613 47.940323 112.689819
70 0 1 6.720567 14.496595 107.753822
71 0 1 98.187256 27.299263 108.954857
72 0 1 90.462227 3.582947 121.008530
73 0 1 1.224007 30.576403 109.755135
74 0 1 26.032917 19.791506 111.728439
75 0 1 96.763969 26.177658 110.924324
76 0 1 4.993997 21.511621 113.451820
77 0 1 10.433781 20.745436 111.865311
78 0 1 14.492113 21.386192 109.444038
79 0 1 95.642250 27.708349 108.807556
80 0 1 9.219811 90.843094 117.616119
81 0 1 7.335099 57.483158 124.794350
82 0 1 95.403511 32.598541 112.317940
83 0 1 40.661793 64.624016 123.715256
84 0 1 89.682930 17.632242 121.342110
85 0 1 14.486069 88.656532 123.241753
86 0 1 55.861965 20.606153 126.020943
87 0 1 99.859734 99.670959 119.692238
88 0 1 88.197029 2.007962 117.579514
89 0 1 7.651380 24.221403 120.389496
90 0 1 12.425961 20.375628 125.855774
91 0 1 12.158681 29.817665 117.329834
92 0 1 20.959919 12.637184 121.684372
93 0 1 11.000777 95.845451 113.463638
94 0 1 12.137371 92.529694 122.759621
95 0 1 36.059708 81.222000 114.013184
96 0 1 29.794704 71.660332 119.929184
97 0 1 16.071960 84.132202 124.781090
98 0 1 6.430861 16.226677 118.549713
99 0 1 20.302605 26.282087 118.862144
100 0 1 30.318930 90.649750 114.784546
101 0 1 27.737198 73.016258 125.672478
102 0 1 6.827963 19.315613 113.645035
103 0 1 18.726704 22.923218 122.811058
104 0 1 36.457748 6.192079 114.897377
105 0 1 18.682032 77.412674 119.871933
106 0 1 28.641945 14.952627 122.003212
107 0 1 89.480591 1.204525 119.839119
108 0 1 18.092115 88.770691 112.313255
109 0 1 20.403879 28.552357 116.665421
110 0 1 52.561089 13.281831 126.646545
111 0 1 8.693830 1.025893 110.778374
112 0 1 9.020850 12.868345 116.280472
113 0 1 18.126534 9.112029 122.701660
114 0 1 10.838473 9.645462 109.798836
115 0 1 3.674939 84.222336 124.961670
116 0 1 35.553253 92.789505 111.020058
117 0 1 16.091400 86.933701 116.440964
118 0 1 76.365936 93.143631 116.496513
119 0 1 17.738274 86.300873 111.093880
120 0 1 25.886238 96.047401 111.421120
121 0 1 27.430723 90.372887 115.119926
122 0 1 93.966995 98.276848 123.401566
123 0 1 30.731823 94.363159 112.592865
124 0 1 12.532360 88.384949 115.836861
125 0 1 95.507240 12.882992 115.854179
126 0 1 19.085480 2.812846 109.535248
127 0 1 1.792591 29.410707 125.155731
128 0 1 19.303295 9.668532 114.759796
129 0 1 41.024227 15.267870 117.769272
130 0 1 11.577946 11.559920 116.956688
131 0 1 13.750859 93.139671 111.298523
132 0 1 22.604982 9.285580 111.034180
133 0 1 31.005772 9.765924 116.180885
134 0 1 18.075993 15.893315 126.031212
135 0 1 10.178315 13.678391 123.250572
136 0 1 30.179604 98.416893 114.710739
137 0 1 3.922224 17.551991 119.490204
138 0 1 11.209312 11.733721 111.530922
139 0 1 1.877323 98.442604 115.793907
140 0 1 81.721085 97.399658 110.182587
141 0 1 8.386387 9.560314 119.873245
142 0 1 77.025009 16.953529 123.592308
143 0 1 9.798224 8.771086 122.039726
144 0 1 52.720787 39.863083 116.667679
145 0 1 6.395875 22.988028 118.269691
146 0 1 34.760105 92.009094 113.630135
147 0 1 15.429889 16.680611 126.986092
148 0 1 4.582230 90.068382 114.542908
149 0 1 8.030659 0.045602 117.479271
150 0 1 95.316933 83.950905 119.985008
151 0 1 40.859638 9.830819 121.152046
152 0 1 0.571102 10.597301 108.661659
153 0 1 36.316292 0.405490 111.183693
154 0 1 35.263309 19.772919 122.847916
155 0 1 36.036709 94.895515 117.674088
156 0 1 13.723869 2.030450 114.120255
157 0 1 8.655567 19.508926 120.928116
158 0 1 39.662670 5.961625 108.166115
159 0 1 16.321962 84.373032 115.319077
160 0 1 12.081767 4.876009 109.638046
161 0 1 8.821511 4.417489 114.784729
162 0 1 43.005993 80.784737 124.795860
163 0 1 88.513725 96.341621 121.385445
164 0 1 24.661432 90.554222 124.099113
165 0 1 82.232780 2.222558 123.000282
166 0 1 99.724648 7.513053 122.608376
167 0 1 9.135051 12.626533 107.033318
168 0 1 99.265945 49.116531 109.149994
169 0 1 2.082086 81.627007 115.826241
170 0 1 96.896614 23.605324 111.104568
171 0 1 29.268021 20.272238 114.633667
172 0 1 10.105795 14.999854 114.387970
173 0 1 10.325760 99.083817 114.171448
174 0 1 12.248349 17.908287 118.230965
175 0 1 19.744768 12.410925 113.524231
176 0 1 67.837410 36.646847 121.369179
177 0 1 8.113929 79.840630 109.748894
178 0 1 10.664245 8.642950 112.594795
179 0 1 11.783563 7.262774 120.807205
180 0 1 1.629336 21.524418 124.411858
181 0 1 8.938741 93.637871 113.898064
182 0 1 22.247757 17.625519 118.676842
183 0 1 13.116516 15.139593 115.107193
184 0 1 15.872408 19.587776 122.198196
185 0 1 5.246246 99.912964 121.305130
186 0 1 22.461033 97.997879 118.918594
187 0 1 14.811604 2.619238 116.794312
188 0 1 37.778656 31.792564 113.437019
189 0 1 4.832428 12.208735 110.407013
190 0 1 92.363228 9.219537 124.924698
191 0 1 21.260550 38.390381 119.799942
192 0 1 91.436630 13.170841 119.197083
193 0 1 96.311165 17.217194 107.976044
194 0 1 96.989006 14.331195 108.752113
195 0 1 96.931290 16.426977 116.198135
196 0 1 63.564919 25.118252 123.928986
197 0 1 8.556868 12.821302 113.519615
198 0 1 14.050709 33.168983 115.782722
199 0 1 12.186709 81.040054 123.536934
200 0 1 6.441667 5.628685 113.470535
201 0 1 10.131793 17.859238 112.210136
202 0 1 25.197145 98.960304 111.833450
203 0 1 11.902838 30.356441 120.428902
204 0 1 1.988713 3.761292 122.385536
205 0 1 28.464285 10.741934 112.361679
206 0 1 99.224182 20.453434 116.621666
207 0 1 87.802299 26.530325 119.308922
208 0 1 12.685096 7.706133 109.089340
209 0 1 74.461914 10.947140 120.690727
210 0 1 3.375667 14.337166 112.229988
211 0 1 37.182812 16.268599 121.279457
212 0 1 45.769951 0.423328 115.235245
213 0 1 26.356840 1.590781 120.568306
214 0 1 93.845810 38.447990 120.661720
215 0 1 95.191673 24.767307 119.687851
216 0 1 0.051838 15.197845 113.452820
217 0 1 98.408051 23.322546 123.611420
218 0 1 92.308098 24.902193 114.369232
219 0 1 97.659813 10.458104 111.675705
220 0 1 99.576462 18.971411 122.217972
221 0 1 75.745064 27.984997 122.308578
222 0 1 18.980738 7.284819 120.503448
223 0 1 5.361950 25.441568 110.431870
224 0 1 74.119568 31.902327 118.514771
225 0 1 12.281045 6.573672 111.984726
226 0 1 95.700684 12.241664 122.314308
227 0 1 99.099686 25.191744 111.895142
228 0 1 97.004433 18.681631 117.980263
229 0 1 25.177471 96.834473 119.470627
230 0 1 12.340549 30.612404 123.398018
231 0 1 9.895971 96.435539 120.519844
232 0 1 20.725708 32.719318 109.668388
233 0 1 94.697327 22.949602 112.791382
234 0 1 13.339385 22.681385 121.899330
235 0 1 19.353184 32.572735 114.073708
236 0 1 14.595835 6.080240 110.579460
237 0 1 89.719589 13.215983 121.433960
238 0 1 17.538128 99.445953 120.623856
239 0 1 89.530273 3.676901 115.881226
240 0 1 27.815065 27.902569 125.210793
241 0 1 94.245537 36.806370 115.550621
242 0 1 89.211311 6.875886 124.003448
243 0 1 6.282772 39.710922 117.902519
244 0 1 87.722664 28.143745 110.019981
245 0 1 82.099388 4.919882 121.727638
246 0 1 4.963169 28.436071 122.913383
247 0 1 17.004316 48.540882 116.052040
248 0 1 34.798874 15.122751 120.531853
249 0 1 6.756380 7.706009 117.950569
250 0 1 18.955864 11.345181 117.655945
251 0 1 79.458305 3.482181 113.040779
252 0 1 0.538160 10.289307 117.455505
253 0 1 8.001118 97.418686 118.747856
254 0 1 21.182774 98.187126 113.686928
255 0 1 9.778199 93.816467 121.366043
256 0 1 17.546925 11.827092 115.118225
257 0 1 10.878724 11.214380 123.784363
258 0 1 11.765228 75.067986 115.731583
259 0 1 32.635876 99.945793 113.931351
260 0 1 99.366356 2.203340 118.199280
261 0 1 33.064602 2.389813 115.259377
262 0 1 27.039988 1.659569 115.382713
263 0 1 24.653902 3.576001 115.481369
264 0 1 11.707995 25.069168 123.757202
265 0 1 11.642690 90.787415 115.031204
266 0 1 20.395576 9.067986 117.533173
267 0 1 16.635347 4.067192 110.641998
268 0 1 26.955000 64.042755 120.171684
269 0 1 98.852951 21.850739 110.214020
270 0 1 84.191727 4.247290 123.757805
271 0 1 46.644012 99.782791 120.147179
272 0 1 48.244373 83.853333 119.586975
273 0 1 18.967005 90.782677 117.996254
274 0 1 28.955429 92.273384 113.246933
275 0 1 36.301350 97.731010 122.494003
276 0 1 39.284843 7.858373 119.866142
277 0 1 26.431059 9.311341 113.571053
278 0 1 2.829961 12.084538 123.177124
279 0 1 54.017601 0.084855 118.836205
280 0 1 2.464025 0.856867 117.142738
281 0 1 13.670066 72.433311 123.553810
282 0 1 78.520966 19.097576 115.746567
283 0 1 5.703281 81.097252 110.013268
284 0 1 24.337214 4.477734 110.766060
285 0 1 92.375961 40.920250 125.731705
286 0 1 29.052921 95.637764 122.763329
287 0 1 73.838692 12.502105 123.065773
288 0 1 96.906853 9.003778 119.571991
289 0 1 39.735931 1.198683 122.435326
290 0 1 94.119553 3.517987 112.598770
291 0 1 6.184119 98.152863 123.756470
292 0 1 14.380333 7.315228 113.294586
293 0 1 9.948004 79.494240 122.567139
294 0 1 8.327477 9.926392 116.902939
295 0 1 19.827644 25.185011 124.065376
296 0 1 5.457663 87.688507 115.891762
297 0 1 18.787970 19.031410 123.047821
298 0 1 99.185654 95.281204 117.827065
299 0 1 95.479965 85.833061 122.041855
300 0 1 17.835846 3.709446 113.259911
301 0 1 41.300648 76.928566 121.560768
302 0 1 24.367512 87.607300 124.851776
303 0 1 1.978763 35.007915 122.378601
304 0 1 23.346354 44.390808 115.341362
305 0 1 14.741082 99.290855 121.108810
306 0 1 92.616386 97.044792 111.478165
307 0 1 27.276138 23.810894 125.024582
308 0 1 8.791733 84.649437 117.192581
309 0 1 8.804836 27.280502 117.880730
310 0 1 6.088632 97.407837 113.841751
311 0 1 11.581603 92.116028 120.195145
312 0 1 88.636368 21.996237 120.629890
313 0 1 72.130524 88.476395 117.047363
314 0 1 29.532602 99.113754 121.547325
315 0 1 96.882225 92.260078 111.829102
316 0 1 32.091507 16.069351 122.115417
317 0 1 83.816055 21.474812 114.696526
318 0 1 99.259537 12.150469 118.946236
319 0 1 87.203835 41.355141 120.388046
320 0 1 9.500168 4.240276 110.338989
321 0 1 99.992432 2.439840 123.663567
322 0 1 9.208112 14.954453 118.604164
323 0 1 13.758710 73.207565 116.018509
324 0 1 95.519356 26.611271 126.411835
325 0 1 30.284958 55.207996 126.466629
326 0 1 5.810038 95.461838 122.469109
327 0 1 21.779589 75.546341 123.925522
328 0 1 37.168034 80.174911 123.202507
329 0 1 89.998573 32.533199 126.895500
330 0 1 33.261223 9.767692 111.937340
331 0 1 14.444013 17.061941 122.252960
332 0 1 20.926899 88.993752 121.762466
333 0 1 13.778711 12.577582 110.886414
334 0 1 96.265381 15.423284 124.558594
335 0 1 83.773285 71.463402 120.858055
336 0 1 5.775171 99.153481 118.856857
337 0 1 1.571871 3.449085 116.916206
338 0 1 7.595319 73.222382 116.974625
339 0 1 90.441933 16.155151 123.741508
340 0 1 4.307203 95.030602 116.157005
341 0 1 16.384647 99.760109 116.117065
342 0 1 20.012766 15.907022 118.132057
343 0 1 99.246178 19.950159 112.396278
344 0 1 21.784899 87.574013 114.839371
345 0 1 22.321081 17.518085 121.607353
346 0 1 25.190619 12.651960 117.812492
347 0 1 18.286369 21.894167 126.461594
348 0 1 16.057865 35.166656 115.935631
349 0 1 31.754169 8.651215 119.720863
350 0 1 14.578921 90.314384 116.187370
351 0 1 25.419161 0.329973 122.954094
352 0 1 28.874035 3.385655 113.137169
353 0 1 60.704185 89.096031 121.011604
354 0 1 68.727081 74.391548 119.117500
355 0 1 37.466805 4.047925 121.126427
356 0 1 53.818893 18.722969 117.179344
357 0 1 45.633965 86.633430 125.618423
358 0 1 17.401541 77.344040 122.326363
359 0 1 11.901389 85.964844 113.070778
360 0 1 5.444786 90.914665 120.627739
361 0 1 6.375210 51.464054 113.441536
362 0 1 34.609226 11.662747 116.310936
363 0 1 91.330811 20.870544 114.895790
364 0 1 89.684303 22.774910 110.901115
365 0 1 5.240830 27.942659 114.726456
366 0 1 97.455299 13.966371 117.486946
367 0 1 91.024368 43.652672 110.859398
368 0 1 12.893579 84.410347 121.150864
369 0 1 8.833637 42.448971 120.774208
370 0 1 17.643293 10.607642 112.477661
371 0 1 5.170898 7.382915 120.219765
372 0 1 0.224084 27.465456 110.784065
373 0 1 7.560294 31.580177 123.512344
374 0 1 9.090245 79.843193 113.880196
375 0 1 25.854578 95.355003 116.975655
376 0 1 28.901072 94.282059 120.285667
377 0 1 42.497353 11.671146 119.131187
378 0 1 80.587883 46.689838 113.439735
379 0 1 1.662107 11.257441 120.440758
380 0 1 17.475094 6.924222 110.382141
381 0 1 1.811255 19.666653 115.149986
382 0 1 9.319354 11.641397 126.127876
383 0 1 14.092434 10.306888 108.973549
384 0 1 21.437750 71.264221 125.815346
385 0 1 79.968674 93.119171 112.511818
386 0 1 84.192757 15.429182 122.336136
387 0 1 4.867330 44.994198 116.434952
388 0 1 19.344448 10.340718 120.264496
389 0 1 90.966423 26.848867 112.383041
390 0 1 93.263077 25.429222 125.075806
391 0 1 36.491032 1.155386 118.117241
392 0 1 91.891090 26.466196 108.274780
393 0 1 14.038455 12.850299 108.327583
394 0 1 43.389725 18.946543 124.575684
395 0 1 71.906242 19.239441 114.904037
396 0 1 0.355071 30.159191 122.175323
397 0 1 99.055779 27.883425 122.980621
398 0 1 41.378178 11.799053 123.477173
399 0 1 20.354099 13.111369 118.945564
400 0 1 36.234570 22.354832 118.595406
401 0 1 20.219704 4.466898 121.600471
402 0 1 15.754644 39.608536 109.695381
403 0 1 12.620687 13.495281 124.762474
404 0 1 33.264996 25.840626 119.406670
405 0 1 14.408467 37.635494 111.536087
406 0 1 28.731920 99.939590 116.424202
407 0 1 44.891430 11.795873 126.202667
408 0 1 28.600380 91.597740 120.732849
409 0 1 25.733252 21.393641 119.846184
410 0 1 30.382364 6.065926 120.494064
411 0 1 33.888351 90.062286 123.233078
412 0 1 95.798752 34.382889 114.777618
413 0 1 0.678223 32.980072 111.229210
414 0 1 4.337199 27.883223 117.420586
415 0 1 4.162869 45.595493 123.286652
416 0 1 25.670685 15.253672 110.359337
417 0 1 99.101326 16.316263 108.889046
418 0 1 27.413046 18.650118 123.411171
419 0 1 17.724493 16.102335 112.383430
420 0 1 95.354179 33.254795 119.425537
421 0 1 32.335358 29.705347 126.397034
422 0 1 24.747463 21.514593 116.550224
423 0 1 97.077591 95.306236 121.271736
424 0 1 96.690910 7.374142 123.110924
425 0 1 2.722800 86.281059 122.967377
426 0 1 9.787886 70.094749 120.934975
427 0 1 21.373346 4.788223 109.580902
428 0 1 18.036297 1.910962 119.740944
429 0 1 84.943253 7.416533 121.867531
430 0 1 98.179962 9.171346 107.455147
431 0 1 92.720337 71.248154 125.372375
432 0 1 5.498821 86.003929 123.670525
433 0 1 93.113892 27.415199 115.574966
434 0 1 88.422874 84.274170 120.650360
435 0 1 97.494072 99.759445 117.669273
436 0 1 2.843118 87.830818 114.725510
437 0 1 12.378309 97.725388 115.378120
438 0 1 81.569382 1.603955 112.098335
439 0 1 97.213036 77.927345 115.455193
440 0 1 13.063927 1.439065 121.701035
441 0 1 9.674599 98.828667 121.794266
442 0 1 6.118160 26.142925 124.385468
443 0 1 6.272812 5.497012 122.115829
444 0 1 11.890425 60.952396 122.698662
445 0 1 1.131741 70.658958 125.107140
446 0 1 16.026098 81.556847 125.589798
447 0 1 28.572487 63.771530 115.057175
448 0 1 18.821047 14.498801 121.331520
449 0 1 74.695961 23.158016 110.570160
450 0 1 91.876999 6.324301 124.412727
451 0 1 7.890314 3.548726 112.214951
452 0 1 79.939468 16.892874 117.071846
453 0 1 98.264580 82.583252 119.067581
454 0 1 96.214561 7.422954 114.927315
455 0 1 92.466743 93.308868 124.225693
456 0 1 5.273874 15.764015 121.555901
457 0 1 13.479588 19.005157 120.462608
458 0 1 86.363945 7.044575 115.879440
459 0 1 9.405924 86.744194 113.656357
460 0 1 95.784309 95.780144 118.755516
461 0 1 5.352602 5.985698 115.902351
462 0 1 84.383667 3.910873 120.842117
463 0 1 31.887035 79.621208 113.038445
464 0 1 11.308221 6.547519 123.368774
465 0 1 42.406864 87.840233 114.905403
466 0 1 80.418037 6.324972 119.752296
467 0 1 36.603905 90.419334 112.357330
468 0 1 84.988831 79.634247 119.178116
469 0 1 51.911076 2.389586 113.004929
470 0 1 35.560036 6.148788 117.589302
471 0 1 48.101467 2.013971 120.632828
472 0 1 44.284584 98.212975 116.241257
473 0 1 99.084732 12.389262 113.438652
474 0 1 24.035299 6.539670 115.812408
475 0 1 1.595958 83.513184 123.360222
476 0 1 89.993896 8.449415 119.968552
477 0 1 92.745964 4.852236 119.675552
478 0 1 85.954155 3.319870 118.678871
479 0 1 5.987502 6.153772 125.021805
480 0 1 58.265446 0.606816 124.595261
481 0 1 13.960040 79.680946 125.635139
482 0 1 69.193382 34.195255 120.359688
483 0 1 12.162855 24.056879 116.756966
484 0 1 70.028358 12.803569 110.908127
485 0 1 92.432732 5.429425 111.322327
486 0 1 9.964748 5.375433 121.454453
487 0 1 13.256466 10.095752 115.027351
488 0 1 12.330295 0.183234 112.251198
489 0 1 14.975448 82.037338 114.280708
490 0 1 5.599762 13.188029 123.469383
491 0 1 94.236748 13.541672 118.448631
492 0 1 2.747203 41.386757 124.617371
493 0 1 44.088238 18.195669 117.641502
494 0 1 6.690767 21.624868 120.727303
495 0 1 26.590216 17.383883 118.391991
496 0 1 98.124702 98.796021 114.824921
497 0 1 19.343142 86.769310 122.170334
498 0 1 17.835901 7.196780 115.332085
499 0 1 8.194580 16.652252 120.589401
500 0 1 20.637903 24.680626 113.447884
501 0 1 98.500916 14.127892 123.144608
502 0 1 10.460689 20.181688 118.533890
503 0 1 94.836052 10.466761 113.847710
504 0 1 24.035934 24.507294 117.193680
505 0 1 79.658943 3.717738 121.404221
506 0 1 99.911240 11.742596 111.038498
507 0 1 30.170519 21.733503 118.670326
508 0 1 96.364746 15.490007 121.710144
509 0 1 1.699242 34.463486 125.610535
510 0 1 87.081932 9.412286 119.879532
511 0 1 4.983572 28.029728 120.064987
512 0 1 18.682823 2.201843 122.501938
513 0 1 32.581047 29.968107 123.434624
514 0 1 11.612833 96.531830 118.275978
515 0 1 9.108889 19.167219 123.687607
516 0 1 34.021954 7.230000 115.645569
517 0 1 16.008312 87.917786 113.833855
518 0 1 27.469431 0.802209 112.695221
519 0 1 27.321671 93.483864 115.584213
520 0 1 91.138107 6.239454 121.706451
521 0 1 16.844255 87.249779 123.678642
522 0 1 7.758679 35.461472 116.777245
523 0 1 16.763897 11.050714 124.380264
524 0 1 3.564928 98.306381 113.769470
525 0 1 34.026741 9.238520 117.657173
526 0 1 13.957687 8.900389 120.493156
527 0 1 77.282211 88.144928 123.255219
528 0 1 8.401171 6.733995 123.504440
529 0 1 78.250786 27.136662 121.675392
530 0 1 84.733604 11.413571 120.334000
531 0 1 9.303696 85.779633 124.107590
532 0 1 98.226326 14.303202 111.471123
533 0 1 94.388519 17.060890 111.977814
534 0 1 20.945578 95.833267 123.205124
535 0 1 6.332198 97.045464 116.639381
536 0 1 40.622513 12.595990 120.860336
537 0 1 6.840877 2.041039 118.640877
538 0 1 25.364651 4.920058 120.480591
539 0 1 99.629517 9.213264 120.031052
540 0 1 90.999390 43.365257 124.950325
541 0 1 90.059425 68.755371 117.045769
542 0 1 17.279072 12.807933 119.755959
543 0 1 15.193136 31.607010 120.359261
544 0 1 6.356028 84.976463 119.591446
545 0 1 48.945950 1.636690 111.842491
546 0 1 17.705292 41.358883 116.316887
547 0 1 13.704958 81.490303 121.061974
548 0 1 91.699509 29.343834 117.068359
549 0 1 39.723381 22.998810 124.327988
550 0 1 26.204180 3.371979 113.077019
551 0 1 42.867786 19.077028 107.677757
552 0 1 62.664055 11.959608 118.957100
553 0 1 93.364952 19.500418 110.971863
554 0 1 93.511932 0.736457 124.370926
555 0 1 96.463783 8.723677 109.763092
556 0 1 95.506073 10.256446 107.611000
557 0 1 96.602188 5.210662 116.265541
558 0 1 35.569244 29.364897 122.914581
559 0 1 12.051446 36.974430 124.326668
560 0 1 3.333759 14.814540 123.387390
561 0 1 1.817592 19.204861 126.271629
562 0 1 23.171333 88.179855 112.364609
563 0 1 92.904900 25.113964 117.185249
564 0 1 27.547007 30.393358 123.748566
565 0 1 26.309919 37.341202 120.315590
566 0 1 30.179800 12.869901 119.686340
567 0 1 4.151782 14.774249 118.972939
568 0 1 36.892529 0.355568 122.525902
569 0 1 21.086229 7.269198 122.028839
570 0 1 20.583941 27.176788 114.298996
571 0 1 5.298947 92.785339 114.915489
572 0 1 32.996590 4.869874 113.826378
573 0 1 33.072052 75.071121 120.965561
574 0 1 72.247459 2.662966 122.781708
575 0 1 22.409975 2.468769 116.874153
576 0 1 97.875183 25.905554 115.797302
577 0 1 47.374100 98.264412 114.673401
578 0 1 53.166618 40.121468 114.053406
579 0 1 85.033333 93.001083 112.024750
580 0 1 15.578473 71.975609 121.498917
581 0 1 94.391350 14.900120 108.175591
582 0 1 18.010595 91.259338 111.839828
583 0 1 85.253937 18.559116 118.101044
584 0 1 22.292158 0.908973 123.412041
585 0 1 12.011426 3.050013 116.916359
586 0 1 8.874835 21.663837 122.714310
587 0 1 17.287237 14.810496 123.656136
588 0 1 29.771986 30.910574 127.770119
589 0 1 10.980851 16.945169 116.182961
590 0 1 16.221443 11.501386 110.317177
591 0 1 22.637794 0.174586 112.058968
592 0 1 15.738170 7.566041 118.509964
593 0 1 3.071481 28.259628 112.431549
594 0 1 9.561461 11.720672 121.365387
595 0 1 9.890391 41.902126 123.517570
596 0 1 31.874638 30.821217 115.481682
597 0 1 15.148395 13.103777 123.433525
598 0 1 12.399889 19.764179 113.844696
599 0 1 94.074142 30.117128 125.580307
600 0 1 7.018133 34.791595 112.292473
601 0 1 95.674286 24.095989 124.603386
602 0 1 24.456894 11.027761 112.118263
603 0 1 5.163019 28.150431 110.151237
604 0 1 6.449579 34.796947 120.101578
605 0 1 3.543475 59.689419 111.566307
606 0 1 17.531723 46.020615 117.438866
607 0 1 7.956999 26.637238 113.772995
608 0 1 14.842235 26.817606 120.911270
609 0 1 10.226434 23.473614 111.013741
610 0 1 32.184032 37.369480 121.052734
611 0 1 16.477804 28.695282 120.265167
612 0 1 14.428571 55.557220 119.000671
613 0 1 86.073570 28.054983 114.590500
614 0 1 7.765387 34.161350 109.642685
615 0 1 82.563950 18.296820 112.409950
616 0 1 98.692062 28.548136 115.425240
617 0 1 5.515903 35.396687 110.203903
618 0 1 18.511665 34.247742 116.548309
619 0 1 92.299011 31.962549 115.973045
620 0 1 41.438480 18.103964 118.372437
621 0 1 30.964733 25.186188 114.934380
622 0 1 1.989572 19.391714 118.239975
623 0 1 19.229609 29.606134 108.158859
624 0 1 94.459305 20.354498 113.308716
625 0 1 6.198935 20.374117 122.965004
626 0 1 98.221893 31.887606 107.231903
627 0 1 2.569373 16.236431 114.192650
628 0 1 26.976728 32.973248 122.828735
629 0 1 17.986298 14.779630 114.690453
630 0 1 2.694235 44.558819 107.436653
631 0 1 27.177610 48.743717 122.867798
632 0 1 85.792961 8.470355 124.246124
633 0 1 16.674625 30.316574 113.683060
634 0 1 87.961639 48.021332 113.447357
635 0 1 18.570944 20.429512 113.773994
636 0 1 21.633224 35.434975 119.960739
637 0 1 21.354053 36.520889 106.694397
638 0 1 2.981124 38.133446 106.833931
639 0 1 95.606239 33.057568 106.912445
640 0 1 1.223147 46.626125 108.924767
641 0 1 21.170792 67.028915 115.776497
642 0 1 85.809799 51.050297 121.892303
643 0 1 17.245209 32.497040 112.094330
644 0 1 22.814827 15.443031 111.263565
645 0 1 20.331957 33.716087 106.957939
646 0 1 94.525124 49.240814 117.247742
647 0 1 18.533966 35.239803 108.516342
648 0 1 22.445004 15.874674 116.431679
649 0 1 15.229877 40.155266 115.669296
650 0 1 2.348193 47.248554 111.431046
651 0 1 14.250098 34.952900 118.185074
652 0 1 11.509047 42.313873 109.672920
653 0 1 15.257051 46.406384 121.064926
654 0 1 97.619759 35.744820 108.937943
655 0 1 6.973009 78.748329 121.184471
656 0 1 13.607792 25.788565 118.336166
657 0 1 17.509045 31.908087 109.253769
658 0 1 19.378994 36.705524 110.798203
659 0 1 93.598656 22.547209 121.217712
660 0 1 25.168568 34.650681 110.046600
661 0 1 14.442025 31.689472 113.166214
662 0 1 21.596794 36.770302 109.522926
663 0 1 27.521540 28.540285 121.777451
664 0 1 99.590469 34.008358 113.930733
665 0 1 28.756254 39.975815 112.695610
666 0 1 17.171852 37.788517 108.035858
667 0 1 23.580187 39.455994 109.570259
668 0 1 12.136855 39.400490 122.956337
669 0 1 19.862612 16.986782 120.842377
670 0 1 94.360344 29.844475 110.614815
671 0 1 99.641640 27.756618 125.848808
672 0 1 33.838894 26.320499 110.257301
673 0 1 5.562190 33.980801 117.367493
674 0 1 93.478119 27.012863 110.682938
675 0 1 12.925645 32.434502 118.639488
676 0 1 96.433853 27.678455 122.493500
677 0 1 47.331341 49.836948 123.717621
678 0 1 12.974731 24.044857 110.118660
679 0 1 14.392472 23.942513 114.731018
680 0 1 48.712860 40.314209 111.090134
681 0 1 96.065475 34.944298 117.425598
682 0 1 29.750021 30.472269 122.235779
683 0 1 6.124697 37.110455 108.129204
684 0 1 18.913307 48.573105 124.574776
685 0 1 65.021927 28.960604 126.211624
686 0 1 22.438034 25.371216 122.475060
687 0 1 99.943123 0.776307 116.104881
688 0 1 94.527283 20.668015 118.280037
689 0 1 96.009834 47.839607 114.874374
690 0 1 2.655321 29.108131 115.388977
691 0 1 36.793312 48.338654 123.384911
692 0 1 89.311188 30.731899 116.512520
693 0 1 1.441548 30.668629 112.607841
694 0 1 24.734257 6.221077 123.068306
695 0 1 96.503029 37.499832 110.650093
696 0 1 30.244844 46.690392 113.994003
697 0 1 99.566917 17.985529 117.141792
698 0 1 83.715248 34.616936 125.762451
699 0 1 78.091713 31.678654 125.221741
700 0 1 27.054068 18.924440 120.676201
701 0 1 17.246918 45.331360 128.043976
702 0 1 28.023624 13.487703 115.593422
703 0 1 97.942062 17.088196 123.186508
704 0 1 16.792685 28.311779 109.025963
705 0 1 12.926721 13.474368 121.710449
706 0 1 12.405892 48.710262 124.129082
707 0 1 30.527500 24.673594 112.217239
708 0 1 27.290289 17.606977 110.096245
709 0 1 0.871073 24.358570 116.982819
710 0 1 16.383011 46.750633 114.022385
711 0 1 5.963215 4.999236 118.775879
712 0 1 11.662061 37.129944 112.794930
713 0 1 8.548554 24.029158 113.580078
714 0 1 34.643333 46.714352 123.219383
715 0 1 25.220007 27.270721 125.949455
716 0 1 99.363808 19.356686 119.527580
717 0 1 3.901831 30.690145 110.983940
718 0 1 92.524277 21.962065 110.362999
719 0 1 0.203219 36.596142 119.749031
720 0 1 0.768526 19.755859 110.263153
721 0 1 8.321535 27.284126 120.601692
722 0 1 1.422475 39.347843 123.393913
723 0 1 3.007726 53.546616 117.823120
724 0 1 30.199638 6.106518 113.150131
725 0 1 9.365032 32.574944 110.650978
726 0 1 38.139236 76.132355 126.454948
727 0 1 16.890591 36.289680 118.126755
728 0 1 38.487862 23.929728 119.368065
729 0 1 2.687276 45.529659 118.184486
730 0 1 4.665195 39.055546 115.759560
731 0 1 6.509909 30.117096 121.464989
732 0 1 12.501393 25.508709 120.987244
733 0 1 30.532206 19.739109 112.288620
734 0 1 21.986647 9.801351 120.181824
735 0 1 14.030581 35.896748 106.357628
736 0 1 9.330841 50.460369 116.025963
737 0 1 19.683065 30.891914 118.187508
738 0 1 1.634264 39.234959 120.741180
739 0 1 5.517296 41.798363 116.269356
740 0 1 4.232550 46.563259 109.022141
741 0 1 26.131721 38.817810 122.613525
742 0 1 80.756790 35.248661 119.833000
743 0 1 12.744410 41.823719 123.662430
744 0 1 70.913757 21.358997 126.118729
745 0 1 3.145902 33.278805 109.499184
746 0 1 87.966415 33.106842 121.728516
747 0 1 0.008443 21.497711 114.278694
748 0 1 11.488984 32.670799 112.575272
749 0 1 20.436619 46.805882 126.166557
750 0 1 3.999980 10.852327 114.315895
751 0 1 83.545471 38.228153 122.369438
752 0 1 29.619049 27.353380 113.109749
753 0 1 27.539955 98.395569 123.451889
754 0 1 44.075817 33.925884 112.840538
755 0 1 0.599739 39.364719 125.976074
756 0 1 8.450389 45.068237 120.040543
757 0 1 34.666847 31.121187 125.035645
758 0 1 6.996863 45.571327 114.448990
759 0 1 8.823284 37.505562 112.833725
760 0 1 44.167393 9.696744 124.482239
761 0 1 3.644842 37.653328 122.451927
762 0 1 92.856094 43.031071 117.331009
763 0 1 91.852432 46.343185 121.544853
764 0 1 14.397977 45.595882 127.065178
765 0 1 91.237144 52.422962 112.551781
766 0 1 6.582963 26.049576 116.308052
767 0 1 4.109848 46.630047 125.879364
768 0 1 88.800079 48.990784 116.312164
769 0 1 88.526031 13.993241 123.796989
770 0 1 5.400537 41.176968 113.471260