LAMMPS data file via write_data, version 29 Sep 2021, timestep = 4040155

25500 atoms
2 atom types

0 100 xlo xhi
0 100 ylo yhi
-20 120 zlo zhi

Masses

1 26.982
2 15.999

Atoms # atomic

11770 1 20.57219514764745 5.461894304972162 -10.81824095416429 0 0 0
12720 1 21.597142995130046 8.210599749795852 -11.254751628703003 0 1 0
10913 1 3.6024047740332894 2.0262422706852066 -6.531495012140149 0 1 0
12456 1 0.7256746938359221 1.6110871538532252 -6.654245549894258 0 1 0
8986 1 5.999222473183029 3.538695379428249 -6.5707498562191 0 0 0
15447 1 6.439599929072441 0.7870529176491572 -6.2589628790024365 1 0 0
10458 1 8.716845525260704 2.4694409929234693 -6.680535930266129 0 1 0
10553 1 10.878356162813981 2.044123878534985 -8.744477677402458 0 1 0
13034 1 23.295634372013605 23.40217129712062 1.2712375421440163 0 1 0
10143 1 12.72526419590326 0.3189687968460882 -7.4952061263974255 0 1 0
11534 1 16.184161928981858 3.0861204748124 -6.981845849615054 0 0 0
15418 1 13.270459758360577 3.3520302376009337 -7.979440689678458 1 0 0
10437 1 15.102368040424304 1.2994501633201632 -8.657255548660691 0 1 0
11997 1 17.61506835925489 2.9018176810930836 -9.185210688542913 0 0 0
17008 1 19.433269911126533 0.4100036413659684 -8.447381610442827 1 1 0
17012 1 18.9114010970189 2.8313476309717385 -6.786372103618117 1 1 0
12664 1 20.195207993646978 2.4888395038579914 -9.905690610441026 0 1 0
10923 1 16.870540247884332 0.48670430085758454 -6.6650761185929195 0 1 0
11242 1 22.38370024418627 0.6808201872426937 -9.097181140680004 0 0 0
12339 1 21.688275191091822 2.217788424805697 -7.01270091218236 0 1 0
11208 1 24.336986990198735 3.042591682894916 -6.851360921148057 0 0 0
15974 1 24.341494059251406 0.32311806722009506 -7.0429254232133305 1 0 0
10601 1 22.699542437389354 3.3804146963102775 -9.605526882073855 0 1 0
16470 1 3.7615049681363777 5.24877578755777 -6.10202743761563 1 1 0
10733 1 6.16478879277806 6.449281700433514 -6.730082524729259 0 1 0
9979 1 8.695936296243808 6.219027993421315 -8.176527478170138 0 1 0
10580 1 10.7184327889458 4.515715414957528 -7.5811202391807955 0 1 0
11496 1 10.711513463347131 8.183811700396593 -9.065699523739957 0 0 0
8836 1 10.640079656289185 7.240798384608029 -6.447180580951862 0 0 0
15000 1 12.770440965344799 6.248769272737405 -8.32068737646171 1 1 0
15547 1 15.900907751323196 7.338557348624397 -8.200885469539358 1 0 0
15638 1 15.303078164382011 4.809446701209849 -9.192677040155528 1 0 0
17253 1 14.746554535134715 5.351494182504972 -6.3729418297607 0 1 0
9186 1 13.742097967314335 7.922870826213454 -6.5426353703849145 0 0 0
15380 1 17.50277036694672 5.309852937762081 -7.166449393549395 1 0 0
11369 1 20.14629512436435 4.771864234205563 -8.199183703620932 0 0 0
17156 1 18.140726591121837 6.177652111474938 -9.568333153910276 1 1 0
14792 1 18.719611597146898 7.760426916692185 -6.930204096032018 0 1 0
13471 1 20.562032459855367 7.64763101526261 -8.762105027820276 0 0 0
10567 1 24.470835347070295 8.298486666197714 -10.207112369240514 0 1 0
16134 1 22.61984072439414 5.065834823897383 -7.021805253652307 1 0 0
10536 1 22.772385391511012 6.171154265877087 -9.467999090150082 0 1 0
10320 1 23.596644916263482 7.806296328330434 -7.477900859259328 0 0 0
9304 1 0.41716608854463055 11.672206972952301 -6.006278368821018 0 0 0
11170 1 5.327185507563053 9.082683716768722 -6.354501681257208 0 0 0
10525 1 8.17912224733706 8.827271461881564 -7.21074340047039 0 1 0
16496 1 12.033792715832613 10.088648151907018 -7.677540128031065 1 0 0
11461 1 9.256941474758921 11.39240899366009 -7.1099879719281365 0 0 0
13222 1 13.11003631668497 12.201005352756521 -6.264085357811518 0 0 0
9167 1 13.67784858754406 8.79497513255505 -9.612436566342996 0 0 0
11005 1 13.508995660496874 11.798184201518872 -9.288409620786492 0 1 0
11403 1 14.927641504821468 10.117576203999569 -7.650974600895387 0 0 0
10796 1 15.980218787068985 11.297098725103957 -10.032234007852209 0 1 0
8916 1 17.42227020217375 11.371683666194354 -7.80309523431549 0 0 0
11497 1 17.93129204163318 9.099206376364949 -9.331632191819702 0 0 0
9209 1 19.938273938983468 10.2995975083264 -7.910227758135086 0 0 0
9266 1 21.271362599357698 8.560593884256384 -6.128507910517733 0 0 0
9059 1 22.37074290058268 10.31080251310431 -9.419135531727255 0 0 0
12723 1 23.178966753875436 10.526638805372857 -6.590578111366225 0 1 0
13325 1 2.179997814986066 15.451332773745644 -6.63430889217895 1 0 0
8873 1 4.488074988256767 13.665042106446574 -6.546484262543016 0 0 0
17191 1 7.301715482439222 13.674145138992094 -6.827587158590775 1 1 0
13618 1 5.367956845779437 16.54430588776096 -6.539588009583118 0 0 0
11181 1 8.818021349699764 14.294604342134066 -9.023267267155493 1 0 0
10854 1 11.211382632171668 12.750601216127253 -8.560836056321978 0 1 0
9321 1 10.173050733015492 14.092192257852863 -6.491952253526671 0 0 0
9375 1 11.088682763273246 15.765625734421304 -8.684558225446505 0 0 0
10354 1 12.886380013940695 14.894901097493541 -6.723802208085554 0 0 0
9160 1 15.293765341412184 13.155106480256931 -7.399293169885961 0 0 0
12892 1 13.749490123884895 14.705579564206047 -9.256128125844029 0 1 0
14787 1 15.35819578450541 16.356739136715333 -7.374502175744937 1 1 0
15459 1 16.847648202601214 14.626257065981575 -8.871627695288305 1 0 0
12884 1 18.784539295316126 13.07315906228884 -6.29507928468901 0 1 0
12692 1 18.736970938177027 16.10654137736539 -7.334170720996208 0 1 0
10510 1 19.38012537723024 13.708917431570582 -8.908265912110203 0 1 0
11253 1 21.320436940726996 12.510363548539084 -7.442764912565977 0 0 0
16157 1 23.69003913734024 12.973423341457876 -8.75157468306529 1 0 0
13904 1 21.837879158598913 15.159687611375661 -7.6282435707112555 0 0 0
12347 1 24.732264581568124 15.207663549601477 -7.5431629886378735 0 1 0
12060 1 4.667987670258475 19.570019543190405 -7.058527913468404 0 0 0
10677 1 7.599673575530763 19.98416930756282 -8.299303520950843 0 1 0
17005 1 9.111964924368449 17.58348024585645 -8.044384798387998 1 1 0
10782 1 11.158571444130654 18.561570760300427 -9.574803930081755 0 1 0
9069 1 10.790831581049732 19.593803909894415 -6.949352087024265 0 0 0
9797 1 13.025795829476824 20.242913337843497 -8.216206504044662 0 0 0
11272 1 12.992650638232035 17.556380849968715 -7.749289077718548 0 0 0
10794 1 15.306459809305418 19.185794398712375 -7.068509052516531 0 1 0
11956 1 18.840051146316252 18.93229851666026 -7.11512779404893 0 0 0
15536 1 21.385675417168237 17.62746088550987 -6.442308930094724 1 0 0
11503 1 24.115932174925724 18.45953577791688 -7.401084389549187 0 0 0
12003 1 21.84753654203558 20.233459649982414 -7.376556805389544 0 0 0
9225 1 1.3770400520653616 22.268879428927722 -7.81626910007419 0 0 0
10145 1 3.0469687128210414 24.30394901581548 -8.888228845919315 0 1 0
10766 1 0.5596827529610422 24.97822805210852 -7.149330545989325 0 1 0
13630 1 4.210692943618444 22.2728246341789 -7.170537463002991 1 0 0
16924 1 6.917396768601229 21.847030604078885 -6.453390332976399 1 1 0
9022 1 8.099486662542402 24.28570227860809 -6.463057427404378 0 0 0
9347 1 5.80116001641335 24.530850121013067 -8.028594147431415 0 0 0
9102 1 9.11670804140805 22.358459256591086 -8.410654533091773 0 0 0
17065 1 11.331842227429988 24.25736455985595 -6.761753448674533 1 1 0
15883 1 12.394195620417747 21.80367472983097 -6.079828505038051 1 0 0
17051 1 13.80761007914063 23.326661184121303 -7.944115817950818 1 1 0
10568 1 16.194864202495175 21.79180817455857 -7.015011524293349 0 1 0
12725 1 16.34565991197067 24.75157743040947 -7.30915675327564 0 1 0
11778 1 19.125061848765586 21.835723264292934 -6.726269001887581 0 0 0
9384 1 20.407546587265415 24.447545746193168 -6.003603517286652 0 0 0
9180 1 23.747229363979354 21.0023626321919 -9.172860208847213 0 0 0
8884 1 24.333934769198308 21.583097925925518 -6.64186256333337 0 0 0
9306 1 21.85855026373532 22.98239561677321 -7.910701049811422 0 0 0
11234 1 24.535339446438137 23.64868453999144 -8.49157272910833 0 0 0
17190 1 2.4230648681510916 1.220063181684531 -4.027529264542139 1 1 0
16945 1 2.166323782574157 3.149214346982429 -2.0772369448849086 1 1 0
15636 1 1.7888708556136046 3.6710336312663188 -5.004498838476172 1 0 0
12981 1 4.523601178467148 2.9915359275717663 -4.2511031903992205 0 1 0
9018 1 7.296718300835579 2.7031203149865033 -3.9558502739468318 0 0 0
10643 1 4.575910915606078 1.624905448388304 -2.0992001451552795 0 1 0
12712 1 7.049520762067786 0.13966119681764214 -3.245023230411174 0 1 0
9543 1 11.542716360354444 2.4406672792631 -5.939391561130807 0 0 0
10316 1 9.611711069082757 0.8472130818570333 -4.572765568841624 0 1 0
9001 1 10.927140386004906 1.3347922917073778 -2.3899198401663155 0 0 0
10805 1 9.97439314236435 3.410891605849235 -3.988933678591725 0 1 0
9777 1 12.4970769134254 0.16356548375089117 -4.615023150773077 0 1 0
9040 1 12.871456151248186 3.116700066260932 -3.609664339779294 0 0 0
9132 1 14.249179766967256 2.093745273121666 -5.704603856629373 0 0 0
15438 1 13.425855132426562 0.6256021004158231 -1.9243234498003785 0 0 0
17200 1 15.544844645101758 2.6399842667605573 -2.7415303590243187 1 1 0
11123 1 15.309541501496904 0.01987999207696463 -4.234050453451007 0 0 0
9273 1 19.702505927926754 0.40261305004513864 -5.690052601172217 0 0 0
11877 1 20.64586238767654 2.739727302884141 -4.600892118949189 0 0 0
11092 1 17.3720174525826 0.5563209259916071 -2.19945200181437 0 0 0
10898 1 17.771532124073158 1.9652855920920125 -4.448753079251231 0 1 0
9799 1 19.33459756836373 2.3732936265369413 -2.159864593983569 0 1 0
9098 1 23.211670847088552 2.465391381594503 -2.870102968418742 0 0 0
17644 2 22.29867649078993 3.7505687289850207 -1.9839807023921903 0 1 0
16917 1 22.308789803763702 0.5396828468627108 -4.616008030135361 1 1 0
15272 1 0.4899207323497308 5.142475389432676 -3.1111198973473444 1 0 0
10883 1 3.3175596824146636 5.367120632783628 -3.2390101581756983 0 1 0
16215 1 1.5002501627778138 6.715021902479911 -5.234611787685415 1 0 0
12864 1 1.7293901713515476 7.712535958817423 -2.643084428300891 0 1 0
10499 1 6.209659890077747 4.224385262022301 -1.7567086272358974 0 1 0
16955 1 7.639734212670762 7.495253937023178 -4.758817309805331 1 1 0
10539 1 6.0270580668245595 5.146026254226735 -4.223851798252549 0 1 0
10843 1 6.208083703542374 7.094083470204746 -2.108188455996911 0 1 0
11212 1 4.602673073811714 7.423723015985428 -4.355169280573108 0 0 0
10274 1 8.567733742723833 5.04247704199986 -5.676863907809449 0 1 0
14759 1 8.449269601228591 5.386881265297533 -2.9513617196787365 1 1 0
9151 1 12.09814629548622 5.137344860768212 -5.257904891236344 0 0 0
17195 1 10.301153845827374 7.2610751362694534 -3.795825627883686 1 1 0
11314 1 11.27887767233485 5.075834083630035 -2.3607253164803894 0 0 0
12934 1 12.873780578491 7.4919567857815315 -3.807724359455247 0 1 0
10648 1 15.456500411858514 7.1861870320052335 -4.100487657345297 0 1 0
9968 1 14.302599055139776 5.545327576571915 -2.2483794399284247 0 1 0
14896 1 16.625884344044426 7.991707410145176 -1.6884315879219636 0 1 0
10540 1 16.9313578148771 5.300787508265328 -1.8084377721023375 0 1 0
17474 1 16.698534987904758 4.526757752189336 -4.644654779153135 1 1 0
9261 1 20.08098744364223 5.665500688332916 -5.684986994866786 0 0 0
12848 1 19.07019823672113 4.819846922393959 -3.398917595577286 0 1 0
16506 1 18.078190792878306 7.58498722825733 -4.192846818098656 1 1 0
17108 1 19.193921673945844 6.92387063351032 -1.598824551036522 1 1 0
10703 1 20.867778823392513 7.4743938268039685 -3.71151775731697 0 1 0
12616 1 24.618476606047807 4.233925798096753 -4.5225390014692985 0 1 0
8969 1 21.782265122673866 4.926980527815468 -3.244222885978148 0 0 0
10353 1 23.375789378336925 6.827524597741741 -4.721161499361609 0 1 0
9047 1 23.175907449393875 6.752519623570518 -1.3609469783952315 0 0 0
18875 2 24.45625361992341 5.505240188923402 -1.6225096325753399 0 0 0
9239 1 0.02278652530034419 9.76247005667157 -4.008021314064226 0 0 0
18524 2 0.9206372699593808 9.98422747442549 -5.578974517349517 1 0 0
9896 1 2.5611040544231143 9.288219771694456 -5.254212678624932 0 0 0
12796 1 2.194822930283128 11.298211811175982 -3.1281109919023398 0 1 0
15162 1 4.030563739277481 9.393829018441588 -2.7708264508136833 1 1 0
11143 1 6.911379974722238 11.252010323980317 -5.55769670454835 0 0 0
17128 1 4.333510856579681 11.482981895239684 -4.771685113246964 1 1 0
16968 1 6.613465216508465 9.591281899259348 -3.3946380906467266 1 1 0
17087 1 5.756124808951843 11.921171883630732 -2.260333493478121 1 1 0
15755 1 8.747483309435353 8.502684514507791 -1.9779292160379665 1 0 0
10554 1 9.201209653739221 9.665646560587822 -4.681459230639871 0 1 0
14745 1 11.790169939840094 9.667039222561657 -5.078296377812782 0 1 0
12576 1 8.371884890044825 11.67227723974023 -3.1684095539662462 0 1 0
15689 1 11.06922672545167 10.037555911180425 -2.2983501829584743 1 0 0
8965 1 10.594110287189313 12.041317242221403 -4.7310035469912375 0 0 0
11808 1 16.558287699425946 8.974726145043045 -5.992401162240318 0 0 0
12184 1 16.151304263785665 11.886818284691936 -5.2047048433264385 0 1 0
13000 1 13.33314632488876 12.05870107960714 -3.4702999662844376 0 1 0
11189 1 13.88719861468198 9.471585792692363 -2.2090928266228267 0 0 0
13041 1 14.315195699630873 9.91552039334704 -4.898532508971793 0 1 0
12845 1 16.303837368250736 10.132200775012127 -3.1537322215017807 0 1 0
9376 1 18.74831522926243 10.357520643406351 -5.369207157031922 0 0 0
9303 1 19.15762855504492 9.585608090389822 -2.810271555327708 0 0 0
13497 1 20.63869930833782 12.125027930346512 -4.581392459456395 0 0 0
16986 1 18.210823563300977 12.048004358982324 -2.666881313308506 1 1 0
10520 1 24.640647378191506 8.794599531152285 -3.3382292116833927 0 1 0
9589 1 22.176040526483035 9.981085547377408 -3.750737513342658 0 0 0
11312 1 24.254119892497616 10.8655683180111 -1.691905745679823 0 0 0
10126 1 20.827207781991923 11.393443319068423 -1.4073255670331126 0 1 0
16083 1 3.870541047881721 15.598226996218203 -4.408789250923508 1 0 0
16502 1 2.5031902311475394 14.94495438492468 -1.9875442830555474 1 1 0
10504 1 1.005705344956643 15.979137843145935 -4.039962291049924 0 1 0
12688 1 2.309908580886903 13.474129673714065 -4.7222442496419506 0 1 0
17459 1 0.02935082363218449 12.767179630452505 -3.3798588034987582 1 1 0
15928 1 8.164908651639509 16.070464784965406 -6.00011055691233 1 1 0
13351 1 6.133106398171368 13.523301262482311 -4.307701715577059 1 0 0
16947 1 6.533688570723465 16.0252331659465 -3.7630789846310524 1 1 0
10573 1 5.079311420372932 14.408045684831114 -1.8285869193734385 0 1 0
17071 1 7.8324056314098796 13.891715847063773 -1.5456441623350992 1 1 0
10335 1 8.857572689487244 14.249572110010511 -4.040090627899729 0 1 0
15249 1 10.662304151151407 12.81209344178246 -2.104314038793366 1 0 0
17110 1 11.898568332856664 14.401588867484318 -4.293361435399486 1 1 0
11195 1 10.12060131192608 15.38900650108519 -1.8490682658114046 0 0 0
10579 1 14.359417278641656 16.111619697979737 -4.733200936741866 0 1 0
10999 1 13.061279376592108 14.630179289745678 -1.8821414420105655 0 1 0
9602 1 15.860007115422095 14.0821645466996 -3.337582654350468 0 0 0
16784 1 16.772573485286998 14.819538014053785 -5.767647177392431 1 0 0
11340 1 18.6665535224706 14.404539836547473 -3.929912760821222 0 0 0
13097 1 20.042814321414934 16.301528487731083 -2.366072312029527 0 1 0
10558 1 20.5766206802855 13.822909223369662 -2.0000574156317725 0 1 0
13318 1 17.70758770176553 14.783391882337348 -1.447221930736118 0 0 0
14823 1 23.260969737714433 13.439884896700528 -5.7500883954783735 0 1 0
11426 1 21.154726532754356 14.973030505689938 -4.7851757315114964 0 0 0
12734 1 22.942125948701616 15.362699912187345 -2.466972466040403 0 1 0
11144 1 22.79137333377549 12.80067878139091 -3.190036963083732 0 0 0
15098 1 23.565937997733084 16.307708068064702 -5.330999345570799 1 1 0
8902 1 0.27804613914898507 18.860454074482508 -4.374224980347332 0 0 0
15191 1 2.5470251229281966 18.009393655646605 -5.705725646184106 1 1 0
17354 1 2.7091238117056293 19.186620931365983 -2.7876239992314735 1 1 0
11307 1 2.135622443228748 20.767611640909504 -5.499432923873991 0 0 0
19751 2 2.7451542506697173 20.65864523764187 -1.7234172882291958 1 0 0
18083 2 1.442968895267138 19.190126612688807 -1.4410157816322637 0 0 0
9696 1 8.296661912282062 19.12715042409184 -5.89564376118171 0 0 0
11063 1 4.417742900622532 17.17735046008527 -2.121353964480057 0 0 0
14958 1 5.124551435641401 18.515387171626955 -4.4098449586161355 1 1 0
19800 2 6.803039180003402 19.047016197388835 -4.870293479536167 0 0 0
15518 1 7.844396690123986 19.032663891358677 -3.3947802953856754 1 0 0
9934 1 7.119397218687749 17.142489974379938 -1.4156679594863304 0 1 0
8772 1 11.00061713201174 16.851384196563203 -5.914924434988438 0 0 0
9228 1 9.39359964924644 16.988321899997207 -3.7595672596294882 0 0 0
11608 1 10.646288854392212 19.525493618807996 -4.29642909892658 0 0 0
15836 1 12.122836234344431 16.933414875018908 -3.2257202453540774 1 0 0
13687 1 9.990495691550148 20.78569167743636 -2.028758901395176 0 0 0
10933 1 12.454621781403128 19.2462935093121 -2.039851555750344 0 1 0
8982 1 13.116557969587046 18.969428154168007 -5.2715825779111825 0 0 0
12792 1 14.840517851174516 18.29386033023603 -3.1832043964264636 0 1 0
9294 1 16.66849187194525 17.63881789001881 -5.331248364909409 0 0 0
11967 1 17.327782645011602 17.002461995985865 -2.8284084428955776 0 0 0
11187 1 17.667600864134027 20.116586831807496 -4.883332189012439 0 0 0
17131 1 19.273442033712225 17.18944081105798 -4.844482134074548 1 1 0
17265 1 19.28142371433022 18.991073563212503 -2.7053725688506822 1 1 0
11552 1 20.53504572515087 19.803216549006883 -5.050710363340483 0 0 0
10681 1 23.563641538536256 19.431973014748987 -4.895498471492513 0 1 0
13413 1 21.92311349805158 17.785036866078897 -3.4802362504919704 0 0 0
12189 1 23.72756153417451 19.368955003225768 -2.1326523204565406 0 1 0
15266 1 2.3157183054012265 22.02052089712406 -2.8491632817005197 1 0 0
10983 1 2.5562111759382335 23.67429790749995 -5.36223714737305 0 1 0
13189 1 0.1334508694092777 23.498558916381967 -1.9167751686876888 1 0 0
8890 1 5.329790326362603 24.026236741285917 -5.336330526797459 0 0 0
12222 1 4.601137186933602 21.386338055970533 -4.4698887315762885 0 0 0
11055 1 4.170914887421086 24.35273018928233 -2.835663949465463 0 0 0
8952 1 7.180125424262577 24.631211605496933 -3.3453984153370064 0 0 0
9242 1 8.00317229286167 21.944608449314927 -3.7265349310309297 0 0 0
17454 1 5.839865516810613 22.21305490199915 -1.7816581187659153 1 1 0
8998 1 9.712426159307627 21.878944637328413 -5.840683603298202 0 0 0
15613 1 10.54590061998837 23.367177681182472 -2.2337243218371814 1 0 0
11233 1 9.762680584365443 24.453909901131357 -4.473784105977697 0 0 0
16667 1 12.477100990618373 21.628783642647786 -3.483620350700469 1 1 0
10243 1 14.976935279470286 20.88926999237742 -4.692251500141191 0 0 0
11380 1 12.563623579879222 24.41162594570827 -4.047542598401015 0 0 0
9651 1 14.612672776351356 23.52047252694711 -5.437496566980644 0 0 0
8893 1 15.094095164993128 23.186927794443207 -2.9022125422257363 0 0 0
14916 1 17.775111924527113 23.657371318161374 -1.708860174787197 1 1 0
10696 1 17.270178751984652 23.225226139333678 -4.801436393963763 0 0 0
9159 1 19.478710397089852 21.994624296690578 -3.6956727950538015 0 0 0
11013 1 16.768635796651907 21.03069740290867 -2.2348978788695177 0 1 0
9476 1 19.39417658113132 24.87153467465751 -3.5581156438648565 0 0 0
11341 1 23.580087616094804 22.706487875161912 -1.5663920955573085 0 0 0
16994 1 21.653731594233268 20.926757373144994 -2.6637363210228724 1 1 0
11344 1 23.298145018118163 24.484270710022884 -5.840636591013086 0 0 0
11239 1 21.87269682046084 22.07586179930805 -5.287227512428479 0 0 0
11174 1 22.02402750842981 23.894829557689494 -3.3826316422137515 0 0 0
8821 1 24.489169439294585 22.097961372061445 -4.061195618137 0 0 0
16899 1 24.736224482092307 24.90070186293897 -3.3377452159031087 1 0 0
16527 1 2.204440371584937 0.49421107317458296 -0.9899810590965414 1 1 0
14830 1 2.7245720448520556 2.7408398157580613 0.7198066269619667 1 1 0
19208 2 1.361648177178404 0.7631290129794696 2.6196138429717086 0 1 0
16618 1 2.988091567024193 0.0910808798122464 2.240683670916288 1 1 0
17275 1 0.20213123013458148 1.5578606074362862 1.5058126710168245 1 1 0
10672 1 5.31544723697279 1.4415886084897276 1.2356273033153207 0 1 0
17692 2 5.408828714141838 1.4998754170308934 -0.5397845256279771 0 1 0
9585 1 7.694428658081046 3.718006459189815 0.5881205245563997 0 0 0
10555 1 7.164454298319588 1.5766087887985503 -0.9441184659076384 0 1 0
10920 1 6.847389698418099 2.798634351567153 3.179503911197284 0 1 0
13354 1 4.882376111594609 4.120399644601795 1.5400893714965005 0 0 0
8828 1 9.758040157597863 3.3874898155955733 -0.9624862501836086 0 0 0
9948 1 8.637304138891235 1.0888024534192826 1.7318939988021227 0 1 0
11087 1 11.212570260059184 1.2856329859199136 0.2208036391153567 0 0 0
18535 2 10.380129012897308 1.4721590794291612 1.8040045264890898 0 1 0
10697 1 11.134467890597104 0.7970127930668718 3.2711083571668578 0 1 0
10849 1 9.30006535017411 3.999684487729362 3.241442924522212 0 1 0
16452 1 15.526252027759629 1.3825009247834283 2.119391995785086 1 1 0
12958 1 13.283272800324822 2.764055511469859 1.7222876083357666 0 1 0
10356 1 13.307434495269126 3.1988174452074936 -0.9919196367090221 0 1 0
10777 1 16.21466785145615 2.9932750807619617 -0.08992599752033274 0 1 0
9639 1 13.369155006062037 0.048288804006701734 1.2518686161848809 0 1 0
10217 1 19.83299212883527 0.12845254855161353 -0.557127575375177 0 0 0
10986 1 19.737920996394823 0.7009021275702338 1.907289887449625 0 1 0
12728 1 18.127484954364547 3.332434247507192 1.8420815693476036 0 1 0
18472 2 19.578280944945618 2.4561005984596926 2.4259505993079187 0 1 0
13090 1 20.61546995329313 3.927647623357256 1.8958565228187882 0 1 0
9156 1 21.525828353758133 2.878608333605843 -0.6061734416263218 0 0 0
13066 1 22.133152162276364 0.627983370400507 0.936653053702922 0 1 0
10837 1 24.717696852176175 1.2033180150218479 2.3817287838120573 0 1 0
11392 1 24.08806044889973 1.9611691944854788 -0.2334898791070851 0 0 0
18839 2 23.180032198528707 0.3052180770927061 2.3561785465645055 0 1 0
19200 2 22.265691183702252 3.943691427174486 2.448400285652364 0 1 0
11211 1 0.1491172997245795 4.416369745247896 1.7918764410633834 0 0 0
10912 1 1.1936815932834544 5.771103592332077 -0.501549695348496 0 1 0
10713 1 1.4697092706437895 7.490843822103157 1.65673150377892 0 1 0
11247 1 3.8690857249943322 7.365792363675263 -0.708062460795602 0 0 0
8941 1 2.55478737402994 5.034917584344803 2.4031037679327594 0 0 0
10896 1 3.697985667505332 4.761107716345339 -0.6659625103316689 0 1 0
16971 1 6.13237608830729 6.068725103787339 0.38247970470629794 1 1 0
18755 2 5.722325596032635 4.286887025876576 3.0765630290972585 0 1 0
10866 1 12.092743042543864 7.257419220631516 -1.2246765200665986 0 1 0
11147 1 9.103860893967408 6.149561682886646 -0.41345668467734425 0 0 0
18800 2 9.603861828948176 7.227237397828297 0.9293135484186947 0 1 0
10590 1 10.103225904138489 6.938072807270722 2.6172086886949866 0 1 0
11721 1 11.565464478736809 4.857763007981461 0.7526206875467945 0 0 0
9296 1 12.43352735947732 4.724885484581052 3.307512198728174 0 0 0
10772 1 15.833812121820014 4.177153497263873 2.75306644313808 0 1 0
12571 1 12.92986096897149 7.154687012034929 2.0195759166959664 0 1 0
10903 1 14.435561331916157 5.136151175693935 0.7077478921464957 0 1 0
15504 1 14.763875741794406 7.715099842426251 0.10558522351391053 1 0 0
13367 1 15.950199817218312 7.037528030956412 2.65959300058719 0 0 0
8771 1 19.18692127274014 4.419721155070959 -0.443580227304384 0 0 0
17691 2 19.176505367088588 4.289430985050067 3.1080356409350998 0 1 0
18424 2 20.35503440101441 6.971174903498956 2.5681465376793735 0 1 0
12748 1 17.62313187164509 6.469048861791148 0.6716199092712835 0 1 0
11011 1 20.658880183557574 6.983418121280498 0.7171851883613791 0 1 0
18412 2 20.926291152919305 5.18034212768636 3.166498338483496 0 1 0
20376 2 24.11467852885555 4.494980929935976 2.897552685906696 0 1 0
18471 2 21.7205529602789 5.584733063321799 1.4382792886485787 0 1 0
17564 2 22.06152841860772 7.555394652907749 1.7560337559492918 0 1 0
13021 1 23.343129336393467 4.675661560917346 1.1879207271681789 0 1 0
9269 1 23.82943819593357 7.866825800586834 1.2646217810646 0 0 0
19216 2 23.46130566855081 6.221958388727735 2.195409648826831 0 0 0
10428 1 0.5352302816967561 11.773753788957311 -0.6036125414585255 0 1 0
21315 2 0.3829482057312226 10.560349313467299 2.9960363550614435 0 0 0
9094 1 2.4553237730221906 9.691188748149509 -0.6416898982752668 0 0 0
9828 1 1.6631518406479997 10.332542890353597 1.7644093204656002 0 0 0
13059 1 4.043524674675511 8.6438007608577 1.6478548988872286 0 1 0
17385 1 3.2337031178755287 12.431305884832128 -0.6604929019036082 1 1 0
11091 1 4.35680652652706 11.34701087068384 1.8047560634893596 0 0 0
8758 1 6.813180387643455 8.57125389630646 0.43371203809127273 0 0 0
14870 1 5.124691539728612 10.21043245877468 -0.4650506863203941 1 1 0
10961 1 7.137532206143752 10.959712442720543 1.9635445837648606 0 1 0
11032 1 8.25674273573803 11.063328942191701 -0.5876149501894323 0 0 0
12646 1 9.704171665614513 8.966292154845666 0.5362450762576975 0 1 0
11803 1 11.554231492989482 9.673583980191603 2.63761978048461 0 0 0
9237 1 10.991231537697077 11.298594986933614 0.5485079277373127 0 0 0
22572 2 11.568271941134652 11.520245160294282 2.328902706043296 0 0 0
11024 1 15.787728519470493 10.284619416125297 -0.28816081353798007 0 1 0
11100 1 13.222339734944521 11.878314825670978 -0.8191176656238447 0 0 0
12288 1 12.632869132970475 9.313274671110069 0.15244062759434418 0 1 0
10871 1 14.567956321776423 9.55612147869645 2.1645190814306745 0 1 0
11018 1 14.558488286532853 12.202807230065456 1.9049597947166144 0 1 0
20572 2 13.1789112508782 12.35894732150848 3.19147740978641 0 0 0
22571 2 14.580385148556024 10.974663746125312 3.3118966576637687 0 0 0
17563 2 17.5345737711944 10.572748949924623 0.1558065326026976 0 1 0
11003 1 18.83722638293035 9.30431990671658 -0.012679444132361167 0 1 0
13136 1 17.541000376329666 10.50924799951933 1.9452490874733228 0 0 0
18876 2 17.863477128346457 12.186082248642178 1.2684550233586793 0 0 0
12798 1 20.310896268851874 10.516034557569096 2.378770973066229 0 1 0
11292 1 21.23498065872625 8.768115262376545 -1.2884369488461485 0 0 0
17073 1 22.49510010763384 10.587198167345868 0.5047571553734764 1 1 0
10608 1 23.758428616354504 11.864145486288198 2.4022084173053275 0 1 0
8777 1 1.4958637827286738 14.73105793695946 0.6316355474641097 0 0 0
9111 1 3.8414046337070924 13.942486124748307 1.5300929021470913 0 0 0
22100 2 3.577223260732752 12.66700470636174 2.7576485057784477 0 0 0
10690 1 4.344341677027828 16.007948577375462 0.17009657777894505 0 1 0
15268 1 6.194779201055616 15.06433049750766 2.0984732000454644 1 0 0
15443 1 6.094758835546257 12.89978945740255 0.26699023540725847 1 0 0
21116 2 7.990974711582241 14.796039376523993 2.153391675164491 0 0 0
9391 1 8.437971079153188 15.513716275168717 0.5513496106005822 0 0 0
10966 1 11.80654807062443 13.294372356478693 2.493393243469311 0 1 0
11016 1 8.850993055679936 13.187532040940676 2.041037784327209 0 1 0
21455 2 10.508043275304091 12.911483184896008 1.2361970575885042 0 1 0
10732 1 11.003924758780938 14.492438702721907 0.34850232627987077 0 1 0
18039 2 10.248203039229455 12.701431223068253 3.225011926100468 0 0 0
9917 1 12.48295321517168 16.319595560276884 2.7173178944060834 0 0 0
9684 1 15.234168476683866 16.10669070980608 -1.22267304021071 0 0 0
8751 1 15.642404399968779 13.04501958432454 -0.9396755018508604 0 0 0
24743 2 15.046316585363725 13.92442753719076 1.8743458230822416 0 0 0
10208 1 13.807932850140705 14.646324559738662 0.7843990162250077 0 0 0
9125 1 15.403249001078049 15.186638915175719 3.0804594102482317 0 0 0
11358 1 18.076395155262833 12.946125084730841 2.915620007348601 0 0 0
9131 1 19.04018310296519 13.254011805223957 0.3598956717386957 0 0 0
20571 2 18.02250382670781 14.131928229840511 1.5710673555594368 0 0 0
11201 1 18.65653775910827 15.644863625706746 2.3080005151801726 0 0 0
17663 2 24.44828439080235 15.685024157499003 2.989053123491258 0 1 0
9206 1 23.201203526949836 13.16239438451084 -0.4805269670375433 0 0 0
11776 1 21.381868184563167 15.421105899847602 0.008768892100203872 0 0 0
11942 1 21.340934132458187 13.167421318653215 1.7853475876960485 0 0 0
13273 1 24.210888258126673 14.53675778153761 1.5758644291813264 0 0 0
10593 1 2.0057607024335273 17.738308323852507 -0.5372865703589044 0 1 0
19136 2 2.964584886145098 18.962846083842688 0.4620308678705863 0 0 0
18911 2 0.9846974676998198 18.943139232459604 0.47081960984706417 0 0 0
9313 1 1.9219440052851844 20.39855173760629 -0.15987371441916384 0 0 0
20411 2 3.7753268721697575 20.707979093925392 0.0008914344360570587 0 0 0
17535 2 0.1572516779934668 17.775204659581707 -0.8814045805878706 0 0 0
9150 1 0.10297213642368569 17.361178058928633 0.9493857400512875 0 0 0
18084 2 0.6329254106740678 20.808467582400322 1.0619749926685773 0 0 0
22016 2 3.102499937687697 20.804357205732444 2.851097785771846 0 0 0
11026 1 7.257097731552351 19.970468010486137 -1.0391163370298138 0 0 0
19536 2 4.340437933595243 19.75733374586456 1.668728066536369 0 0 0
9006 1 4.773965265915717 19.158459015419364 0.03802632022212298 0 0 0
8903 1 7.509036455011334 17.95049538283288 1.1201369543813726 0 0 0
19799 2 5.792789945835376 18.423006057861063 1.4051984341406367 0 0 0
10927 1 5.965487289410963 19.590048814756027 2.7248616066447644 0 1 0
19135 2 7.120421062150848 18.224835276225154 2.859717007491758 0 0 0
20367 2 5.558559949427933 20.602691523866966 -0.8858578560597982 0 0 0
9502 1 9.850599311998646 18.179794720607298 -1.1928575643425625 0 0 0
9011 1 10.846950211772338 20.28744834674674 3.12767724501522 0 0 0
16941 1 10.285863514798582 17.5893742891521 1.4821127106430685 1 1 0
9274 1 9.414688736663587 20.17626626513323 0.589973057036346 0 0 0
20780 2 9.121745693061186 20.507747733382658 2.332431079881455 0 0 0
9272 1 12.298509787455329 19.513059760243614 0.7205344095458333 0 0 0
15984 1 12.582437506711287 16.89118880183004 -0.2365587634020584 1 0 0
11764 1 16.111395295719547 17.032066573310097 1.1993596920498446 0 0 0