LAMMPS data file via write_data, version 29 Sep 2021, timestep = 6060164

29500 atoms
2 atom types

0 100 xlo xhi
0 100 ylo yhi
-20 120 zlo zhi

Masses

1 26.982
2 15.999

Atoms # atomic

17285 1 8.998640367580439 2.78111811588988 -11.83170601518003 1 1 0
10562 1 11.19849820320762 0.5404071136549512 -11.27225739297094 0 1 0
9014 1 11.976183484401806 3.0981367400577744 -11.383488992624615 0 0 0
9124 1 14.171809094354856 1.212553829984843 -11.732890678954204 0 0 0
17563 2 19.877336037489258 0.9528959073149453 -13.836937490029495 0 1 0
11003 1 19.306269897666237 0.7556572072928683 -12.128140318273823 0 1 0
15551 1 18.69501419753545 3.537761398507799 -11.506994115678665 1 0 0
13012 1 20.411819723124484 2.7007450898665546 -13.607081886710114 0 1 0
9266 1 22.912401426760958 1.5973277682287796 -13.469990146813934 0 0 0
10525 1 22.671391276788682 3.6014457432660767 -11.314291825000726 0 1 0
9020 1 24.21429086063847 0.7904979960574586 -11.34077486740595 0 0 0
9585 1 6.992648563352471 4.82651422315212 -12.426822012370076 0 0 0
18524 2 5.682550227612017 8.302694777279264 -11.48387629850838 1 0 0
17291 1 8.933033371928433 6.752802074102911 -12.834318087957422 1 1 0
17431 1 10.317641968905805 5.207378574437972 -10.972940373281162 1 1 0
10545 1 15.474887761045935 7.960210077969585 -11.864081120072646 0 1 0
10865 1 17.876833787460953 6.515256543041802 -12.400812900799655 0 1 0
10777 1 20.485435046987693 5.373400318441394 -12.533449868435119 0 1 0
17252 1 20.088691346670398 7.927559365800895 -11.774545226546682 1 1 0
8952 1 23.262110257802625 4.682512502833915 -13.977251545086355 0 0 0
10161 1 22.491778501467206 7.2207735272595235 -12.998447491539073 0 1 0
15043 1 24.553820116505538 5.645613418670444 -11.334964063157955 0 1 0
18523 2 24.902836010078246 5.405474935922393 -14.50461149503869 1 0 0
10631 1 24.611192656413973 8.326325321611442 -11.32626488211175 0 1 0
9896 1 7.48048825637374 8.802356371107473 -11.384396207009104 0 0 0
9304 1 4.686561633944691 9.820598328713633 -11.605486404890975 0 0 0
20635 2 6.3379498525042015 10.176855341553367 -11.188647216260275 0 0 0
19739 2 14.43314782522012 9.412201163488653 -11.561104599850225 0 1 0
9334 1 12.964556259857742 8.717712808860211 -10.77146100705069 0 0 0
10120 1 20.29552805375269 10.426117221723349 -12.887500730656791 0 1 0
14792 1 17.659933255905692 10.669534730467753 -11.56223764509922 0 1 0
10931 1 23.302142086084373 9.823422608515886 -13.654461990739797 0 1 0
10676 1 22.21283484224585 9.54746261763125 -11.10788220871314 0 1 0
10026 1 22.717159516814956 12.299387711185544 -12.990859126563278 0 1 0
13985 1 24.779763704619327 11.090560071800358 -11.657362496984161 0 0 0
11426 1 14.64724630724425 15.419946261638156 -11.682958862362511 0 0 0
11635 1 16.653217313644088 16.321699090994393 -13.352556766710556 0 0 0
14823 1 20.6972429189595 12.917621350020642 -11.412453655113382 0 1 0
9142 1 17.555653634411016 13.320316250041426 -12.788051104664873 0 0 0
19800 2 18.674208719222527 14.187183061400152 -13.985394701082637 0 0 0
9696 1 20.114446686089583 13.110161665406144 -14.10936241169313 0 0 0
16924 1 19.3612848808077 15.521392417621914 -12.987208701598647 1 1 0
10961 1 17.42394451591248 15.190567125363474 -10.928993822933784 0 1 0
11032 1 24.56750240535333 14.195952209737575 -12.095298380865467 0 0 0
9612 1 22.06440486134529 14.93962160754932 -12.471844518740962 0 0 0
11467 1 18.402883811766586 17.781449104302496 -11.539474864209465 0 0 0
14927 1 24.045329843913354 16.778941842639693 -13.06108225027436 0 1 0
9200 1 21.208915829978626 17.725142048428662 -12.911625995070963 0 0 0
13672 1 23.67032313506134 18.989904681885736 -11.162581799476474 0 0 0
16420 1 4.785949532851278 24.0010281674027 -10.709048705086415 1 1 0
10980 1 18.36933967201816 24.656627343600714 -10.840862297824104 0 1 0
10608 1 20.745175375385305 22.238892523274572 -10.763624682335497 0 1 0
11810 1 23.495219644411485 21.636096195746227 -12.089224082328855 0 0 0
9502 1 22.177900765224695 23.960163472624362 -12.442614587666283 0 0 0
16847 1 0.6780157576666211 1.280040891369848 -6.7129205765834525 1 1 0
10670 1 1.577917753508784 0.9242987874798412 -9.393659088692822 0 1 0
8828 1 3.071871230216338 2.4238456333072267 -7.279299052159225 0 0 0
12712 1 3.176079664398421 3.3713210269770744 -9.8185508268165 0 1 0
10555 1 4.067141287416457 0.750839597160919 -9.576965922061852 0 1 0
9613 1 0.006588317346277911 3.1747681631345066 -8.512611668786233 0 0 0
17305 1 6.413246763421742 1.9845351233871342 -10.501630290437443 1 1 0
8806 1 5.5629159923601215 3.0387236275118883 -8.124934773044842 0 0 0
12884 1 5.5507705803185265 0.7047954760741801 -6.7862032111921184 0 1 0
16510 1 7.882317593343189 1.137844988962139 -8.0271646642026 1 1 0
11143 1 8.10748079134258 3.9580790105394668 -8.920485452014772 0 0 0
15638 1 7.640335992678021 3.953300640092727 -6.238121167263585 1 0 0
11545 1 10.096373289411002 2.3600722001431027 -9.515196850423855 0 0 0
17395 1 11.851621271564039 0.643508574497783 -6.6876751660994165 0 1 0
9934 1 9.93190533815393 2.690816722045224 -6.843126033117673 0 1 0
15327 1 12.616729169441793 1.269216450186695 -9.11633404112744 1 0 0
10903 1 13.60595761021163 2.8319096280067426 -7.246747983007383 0 1 0
14019 1 14.556450303587008 3.0241301870325334 -9.703193063338665 1 1 0
10672 1 14.622397882891702 0.43596192196989697 -6.564945054641935 0 1 0
10937 1 16.265535364910495 2.4328391556398143 -6.399615199395839 0 1 0
14515 1 16.825242366291118 1.8266687139276772 -10.486322750970123 1 1 0
14382 1 19.424289688364198 1.636792251339234 -9.58707613181225 0 1 0
15346 1 17.44362485611646 0.5804119702389879 -7.930102785274009 0 0 0
19675 2 20.48616943485548 1.3955789375522678 -6.654830460475769 0 0 0
11608 1 18.05571991713711 3.6609302051045427 -8.367634914884722 0 0 0
16944 1 20.769093782733844 3.958074956792006 -9.551157585543782 1 1 0
14825 1 22.31517433198428 1.5809506725056355 -9.354059050978298 0 1 0
12836 1 20.865013802751413 3.1027009532014542 -7.114381755641548 0 1 0
10346 1 23.643249405276443 1.4945492819592299 -6.992709289505889 0 1 0
9944 1 21.565587965108815 0.014277611281339923 -6.341329399771737 0 1 0
10083 1 24.892639165855552 2.9287224758940056 -9.84935239694549 0 0 0
18584 2 3.830983853985399 4.754563851889462 -10.650588193890947 0 1 0
11416 1 2.9130874878923287 6.2581420451418115 -10.246100319996339 0 0 0
20504 2 1.4359195737680193 6.873028308977167 -9.340484394016867 0 1 0
11109 1 2.463486131588065 7.8032871540552495 -8.172854683588035 0 0 0
9094 1 1.3580948334049385 5.422142302387771 -8.192667946273938 0 0 0
13603 1 3.97991803373388 5.249510657625418 -7.645906904012713 1 0 0
14896 1 5.576998921653612 4.904387039616273 -10.046789586015398 0 1 0
9239 1 5.212809549540927 7.656289474202518 -9.834390827978758 0 0 0
9949 1 6.757209363654853 6.289377224279016 -7.699421260603849 0 1 0
15984 1 7.963572315319778 6.236031358475833 -10.497212459125176 1 0 0
16670 1 10.118888687598096 8.038526520104336 -10.601578111033044 1 1 0
12184 1 11.819554529668933 4.291107435371532 -8.746276878184393 0 1 0
14607 1 9.692847794590145 6.311376414185697 -8.287864187773875 1 1 0
15515 1 12.37671493949767 6.9432299691174535 -8.569810754930867 1 0 0
14870 1 12.0707401123668 5.042867318477303 -6.197235194352897 1 1 0
15485 1 13.61136492526633 5.4066738635984 -10.655234932769458 1 1 0
12617 1 16.586159402855078 5.15231768689812 -10.50242459520646 0 1 0
17233 1 15.010617019083616 7.531418930607045 -9.301202364051857 1 1 0
10924 1 14.415945227840346 6.659002076460803 -6.577155839216458 0 1 0
9639 1 15.54658349191402 4.832966776417408 -7.833671354938649 0 1 0
11393 1 19.199925593406775 6.093296252818165 -10.067363158316885 0 0 0
15836 1 17.782511633579368 6.350587931735314 -7.794536234138108 1 0 0
11346 1 20.748415477412518 6.168431490897889 -7.664956857068505 0 0 0
12796 1 17.636932013231235 8.312886560592432 -9.879498108003675 0 1 0
10580 1 22.085028041305062 6.313730081546638 -10.214848511878799 0 1 0
8993 1 23.289889081261926 4.40611375997812 -8.39369667404944 0 0 0
9470 1 24.35427522997358 6.945402049668863 -8.699126328869276 0 0 0
13122 1 24.294685828915135 5.718966586534868 -6.041101654964264 0 1 0
10912 1 0.2489318316683215 8.434056297565355 -6.112256898244596 0 1 0
13885 1 3.1424921561885704 10.132407640610113 -9.480637373851708 1 0 0
20852 2 1.7215643116546249 11.18198133577388 -9.079694961188995 1 1 0
15878 1 2.811332000944836 9.78368969914257 -6.493888177687834 1 0 0
15735 1 0.47371761077797875 10.241198431469615 -8.171156422689377 1 0 0
10504 1 4.702573766231736 11.412164355948345 -7.432263050711921 0 1 0
15894 1 6.296751345595206 10.601617494323548 -9.435971120896928 1 0 0
10549 1 5.311636629655381 8.457080702165424 -7.255712420654961 0 1 0
9376 1 7.460390610109993 10.469882109767862 -6.857745599289591 0 0 0
10271 1 7.952684881737918 8.500416952327129 -8.764139148099138 0 1 0
16718 1 12.241855265833369 11.13887389383747 -9.773282325697446 1 1 0
16970 1 9.191484077796883 10.854709791378253 -10.166994430720814 1 1 0
17265 1 10.629118916032215 9.189373265870644 -8.142600751471734 1 1 0
9281 1 12.253546875211656 10.830260551832263 -6.219948338637151 0 0 0
17474 1 10.299876356049856 11.698656661084 -7.804456130968132 1 1 0
11024 1 16.50937004769595 8.617170761200693 -7.245234774600652 0 1 0
10316 1 15.061814922675078 10.366888966362204 -10.083675818284844 0 1 0
14625 1 13.762481162463748 9.401726389692493 -7.762448969102996 1 1 0
10539 1 15.634140621697366 11.11796598456123 -6.474298213041314 0 1 0
10437 1 19.860936512121288 10.462906800242067 -10.012271513854632 0 1 0
11242 1 17.433029479752264 10.776741653648028 -8.689288289018023 0 0 0
13383 1 19.304149286573665 8.736263171339644 -7.7300111298479255 0 0 0
9273 1 18.366592049704543 10.86719032079661 -6.117143682691834 0 0 0
11314 1 21.992654290171597 8.580715344378826 -8.552089228038461 0 0 0
15069 1 22.471661397912897 11.711588906000207 -9.529065667413063 1 1 0
9040 1 24.581634303117777 9.806734208406846 -8.851467788089757 0 0 0
11144 1 20.94433429339593 10.967348207885681 -7.2606779507149515 0 0 0
14576 1 24.16533822873095 8.760586396797885 -6.287159881244284 0 1 0
13117 1 24.489272470200422 12.015046928600398 -7.307287613102686 0 1 0
13807 1 2.023805963056262 12.528463503009034 -7.950934240185962 1 0 0
10439 1 2.0971286937135423 15.321801042587534 -9.25581779032977 0 1 0
9242 1 0.3505894975696611 14.742130255927409 -7.291472612944493 0 0 0
15945 1 3.3716804130735074 14.75670171671819 -6.79932361957041 1 1 0
13903 1 7.672816520494198 12.717918481633577 -8.553699059558497 1 0 0
16871 1 4.923801880140671 13.798330848398587 -8.765027771958977 1 1 0
11215 1 6.402121526071765 15.637688617379663 -6.3085758360782 0 0 0
9019 1 7.127628312787322 15.24507349029177 -9.327225277350845 0 0 0
12060 1 9.89824528862083 13.584633731656183 -9.987291571606928 0 0 0
11470 1 11.925452201642804 13.453519628832357 -6.28561673063192 0 0 0
11348 1 9.374979016688242 15.120533516466207 -7.2884728723753085 0 0 0
20443 2 11.100475945208583 14.735724034357789 -7.276546573610975 1 0 0
10703 1 12.340219845026974 15.862523325565409 -7.8819688070266665 0 1 0
15553 1 9.94239246388078 16.513505457880523 -9.814860155308184 1 0 0
16621 1 13.951737919558727 12.503211501755635 -8.127287360707435 1 1 0
9068 1 15.584835623828974 12.974312654200794 -10.57107552803388 0 0 0
9957 1 12.773088556847085 14.019562990816087 -10.190989737978136 0 1 0
13006 1 16.64503126234745 13.310977150298779 -7.748645548883084 0 1 0
9017 1 14.349750993737937 14.706710850008731 -6.266711673212717 0 0 0
12005 1 14.862073270193031 15.24798958970691 -8.883504216935023 0 0 0
8816 1 20.210405451853372 15.594871775924673 -10.515062868415198 0 0 0
10796 1 16.934540947196794 15.583197918873292 -6.259640552406513 0 1 0
11211 1 18.438333079869736 13.000027318036706 -9.911002616424993 0 0 0
8986 1 19.339268118740573 13.373056976030156 -6.437457351194749 0 0 0
16215 1 18.451916702632804 15.365479567235083 -8.502448526109571 1 0 0
10760 1 19.904799280166568 15.942917899910018 -6.456498839547978 0 1 0
10111 1 20.866389377080182 13.804717953326433 -8.663531573463183 0 1 0
12481 1 23.525233577215364 14.174085560306334 -9.472106686577098 0 1 0
11513 1 22.349566788054226 16.191728002053388 -7.7328953536907585 0 0 0
11112 1 22.212707873819994 13.63199678151513 -6.293081022134982 0 0 0
13256 1 22.569058053666446 16.63859819857425 -10.447138965192774 0 0 0
10876 1 2.0482259460636394 17.410017692490452 -6.855689316775108 0 1 0
15025 1 2.459104214961326 18.793860692957267 -9.173471340894269 1 1 0
8863 1 0.3998738505211935 20.059572341368323 -7.153723978711446 0 0 0
19420 2 0.7988929989265653 18.21987984810592 -9.61939477604498 1 0 0
11239 1 3.111385486860862 19.937911237205803 -6.801954385942178 0 0 0
9149 1 4.5046540867872995 16.704461495908273 -8.185670831507823 0 0 0
8916 1 5.351864126547503 19.484880157377734 -8.485607191657333 0 0 0
13496 1 5.777412642953016 18.760002756536498 -6.095673385319031 1 0 0
11026 1 7.690835096492608 17.518856033138054 -7.756228062004269 0 0 0
12229 1 11.02586433994682 19.319931990178063 -9.968083250842982 0 0 0
11326 1 8.513370238061052 19.665768364316687 -8.937067647558038 0 0 0
17332 1 10.395638405216605 17.909738576114822 -7.378226227776893 1 1 0
9777 1 10.873731074553545 20.65971085979544 -7.73700540546927 0 1 0
16656 1 8.707198959540131 19.645395392564534 -6.128613087330744 1 1 0
15438 1 16.116361452564238 17.575142170356983 -10.04404109205542 0 0 0
15879 1 13.218205345244376 17.092979061431247 -10.125183269612357 1 0 0
11936 1 13.659171060032616 19.79032950572728 -9.53149128171607 0 1 0
9321 1 14.64637106024348 17.591554600432595 -7.626815850726169 0 0 0
9384 1 13.371951353032712 19.770321533593112 -6.753960115389978 0 0 0
11205 1 16.02033479946179 19.93840136852802 -8.088968015022548 0 0 0
12195 1 20.274621647849912 17.692174329988042 -8.70156236376543 0 1 0
10458 1 17.713262574713593 17.753231710061474 -7.598607698203967 0 1 0
11189 1 20.57878843086607 20.74821816263681 -8.377966164786763 0 0 0
16955 1 18.337470797384782 19.61455903158325 -9.626677965286607 1 1 0
13777 1 18.334947659259697 20.115948815496033 -6.659940815813032 1 0 0
10809 1 24.935989665203923 16.714563472431298 -9.052501441062466 0 1 0
15000 1 21.04750715363823 19.290962277158517 -10.633872470338526 1 1 0
13352 1 24.4648960097671 16.772818402128895 -6.465220442623772 0 0 0
12525 1 20.93603941969047 18.768454213042787 -6.147902100176094 0 1 0
10044 1 22.837219755786908 18.58493525638499 -8.086034459341317 0 1 0
13146 1 0.7825612435830331 21.904157288481066 -9.128068436318939 1 0 0
13425 1 3.5501131894802844 21.66930706511099 -9.156805438749087 1 0 0
17014 1 1.9578174530176724 22.784664869735927 -6.7565642036039595 1 1 0
9472 1 2.2799810640826803 24.242338169146674 -9.451402316311825 0 0 0
12593 1 0.11092247669692393 24.89691262031719 -7.815125422291625 0 1 0
10630 1 6.435361180928857 21.97002522580368 -9.334227089826335 0 1 0
16578 1 6.112864836868793 21.498235588347676 -6.527195291885452 1 0 0
10114 1 5.187436843308669 24.144350853963818 -8.081875724260781 0 1 0
10131 1 7.840001408679198 24.283329651315324 -9.046765845616665 0 1 0
8905 1 9.496654230502084 21.91698528353281 -10.026642527523423 0 0 0
11247 1 10.879348047335885 24.53860186924533 -10.474546433375895 0 0 0
15711 1 8.556122332525888 22.21566112758864 -7.27961599245168 1 0 0
15021 1 10.543390186667246 23.84848715549769 -7.881396521321914 1 1 0
15436 1 12.291939590588909 22.181342547289123 -9.782908387055478 1 0 0
11145 1 15.35928822492113 24.186075890034555 -10.574817675198458 0 0 0
14071 1 15.846666972454676 21.0438279027466 -10.580181875991313 0 0 0
15215 1 14.801554341956901 22.624385442897946 -8.562997684645513 1 1 0
14724 1 12.678055861710668 22.55259215767923 -6.879838224358548 1 1 0
16509 1 14.702299974487765 24.254517106407892 -6.077453611407279 1 1 0
13037 1 18.06792836827114 22.30799451459682 -9.240389567113466 0 1 0
16860 1 19.17131269191678 24.409542746203797 -8.01478602359498 1 1 0
12500 1 17.126732117158 23.046937299441005 -6.742053945160419 0 1 0
9228 1 23.210202192951964 20.869573555493115 -6.534194197794705 0 0 0
11204 1 21.016794988424245 24.923284078555575 -10.149514546413672 0 0 0
13161 1 23.125252378093546 21.07056704182761 -9.36609276509261 0 0 0
12275 1 23.381031739932542 23.668288157249545 -9.908040691918005 0 0 0
9176 1 21.68016917408373 23.419561593153773 -7.7833393034946035 0 0 0
11473 1 24.32321509604345 24.943345983062915 -6.969170555814918 0 0 0
16919 1 0.32231809517023313 3.273536104543939 -3.261592875988277 1 1 0
16657 1 2.737297871528459 1.5890315718898147 -4.683005723622072 1 1 0
9222 1 1.5172911608637145 3.9863438948348824 -5.82823822388216 0 0 0
13059 1 3.4174968538146095 2.175240842546337 -2.0951060450557506 0 1 0
16041 1 0.9282708970563427 0.5001027832171079 -2.4427525718845304 1 1 0
14084 1 4.684269513035874 3.726135632149556 -5.475840621249569 0 1 0
12828 1 6.120830503650545 3.1876239611463144 -3.027925950592192 0 1 0
8982 1 7.972401909570554 1.3331085030568801 -2.5298006790674976 0 0 0
9151 1 7.666771186155102 1.5436196933560966 -5.103897196388298 0 0 0
16968 1 5.346429504246187 0.9323154475010509 -3.986206414466209 1 1 0
10294 1 10.487470574508473 0.5226732491529691 -4.401094431846517 0 1 0
9932 1 10.474486576883363 2.310693172668356 -2.4251885212415374 0 1 0
10155 1 9.900763372390557 4.062275102119329 -4.506856269346485 0 1 0
20708 2 12.015832018351706 2.9394915002757185 -1.4450536493556205 0 1 0
11056 1 12.505871017966461 2.4156400101894646 -4.7811265739115445 0 0 0
11235 1 13.399088897553883 1.7775274650433384 -2.1407341867254845 0 0 0
10902 1 15.628561740929499 1.9763322750806351 -3.436830243096494 0 1 0
10151 1 19.066793165997595 1.694155033866476 -5.562146851215601 0 1 0
10217 1 18.02407908707862 3.1146118582724305 -3.5531719504672834 0 0 0
13066 1 19.729235172163012 4.148964254867661 -1.592401010596978 0 1 0
17019 1 17.86866437362441 0.43975944502686853 -2.6141568142471168 1 1 0
16994 1 20.70876261403167 1.8042353502862647 -2.720318804825416 1 1 0
9122 1 20.330427733697853 4.0383289654628705 -4.5234959661054495 -1 0 0
11100 1 24.25357876694356 2.0831103279614336 -1.6354000415673142 0 0 0
14807 1 22.97421469625674 1.8191674317478292 -4.226909534094384 0 1 0
10383 1 2.729813344951272 6.803645592592372 -5.671448562665313 0 1 0
8955 1 3.0376038985524914 4.728294689589229 -3.571161059549785 0 0 0
13354 1 2.76311436228423 6.941716087714777 -1.8070326481684902 0 0 0
18800 2 1.450516034479224 7.702853067582388 -2.782497312723948 0 1 0
15643 1 0.7435576283649081 6.3218925948958296 -3.706987965682369 1 0 0
16452 1 5.276312105288979 5.282644625052296 -2.0537963879627914 1 1 0
12896 1 6.435444287104058 5.642572506692249 -4.466670770726956 0 1 0
11122 1 4.659971238153405 7.718583874932088 -3.8633950589026274 0 0 0
15443 1 7.813355056872634 7.404481379205585 -2.4941550089429283 1 0 0
9948 1 8.233809779488013 4.598416335366324 -1.9584879139351872 0 1 0
9261 1 11.94988963546764 7.954582478182331 -5.80163209184433 0 0 0
9492 1 12.407267846454813 4.226742380130784 -2.813090371230135 0 1 0
15191 1 9.011511810762414 6.384018459785593 -5.4927881440310005 1 1 0
10167 1 10.660960248708843 7.188735005005259 -3.4995012624737964 0 1 0
10554 1 16.283122096003847 5.118707047615515 -2.6738105108367587 0 1 0
12958 1 13.379490557143422 6.500606454538371 -3.8965414109897467 0 1 0
13136 1 14.64326797323235 4.223795634812334 -4.963252237312584 0 0 0
15447 1 15.320938060928084 7.74847840865742 -2.461713040681455 1 0 0
11619 1 16.46264517722525 7.078611472054733 -4.880820229744458 0 0 0
11552 1 19.39218148691648 6.661008016689381 -5.2178412048452305 0 0 0
11534 1 17.685664344782868 4.667087047097513 -5.713003731893899 0 0 0
11935 1 20.563253926431457 6.637484515590772 -2.7402330033203524 0 0 0
9098 1 18.09401487568614 7.500947238455081 -2.419562189278585 0 0 0
10333 1 22.90485702807132 4.225932958281604 -3.0275507262319357 0 1 0
11942 1 21.926464156565352 6.052536938231825 -4.961926361858126 0 0 0
10415 1 23.830207065092765 6.858679174300827 -2.6818605824912933 0 1 0
8758 1 1.9539344150377707 9.09146940463691 -3.806550832575038 0 0 0
17128 1 2.7749471626226354 12.31554426398316 -5.063099688776021 1 1 0
15928 1 1.1338395155372696 11.409756349064304 -2.70552077818765 1 1 0
14830 1 3.67351980481569 9.8040388382909 -1.7214262112290568 1 1 0
11212 1 0.558208402434026 10.905244511077079 -5.345735735041597 0 0 0
17095 1 7.215803247412543 8.435119220481814 -4.967065029680438 1 1 0
9103 1 4.8376125731025486 12.180736343629299 -2.8353147954728337 0 0 0
12646 1 4.854932174410294 10.252101597603113 -4.938595204832963 0 1 0
13084 1 6.354441118111375 9.75571141245107 -2.6800560696411466 0 1 0
17162 1 7.632745174808643 11.344811773326967 -4.169924047915271 1 1 0
9186 1 9.659220739904336 9.45462115113749 -5.686715524982523 0 0 0
10344 1 8.725068585843896 11.967341611049319 -1.6797191139925676 0 1 0
14660 1 9.451024334578646 9.605186282462828 -2.8346112298957187 0 1 0
11195 1 12.035458252666476 9.501372313532233 -3.5832701863951595 0 0 0
10143 1 10.944287295497366 11.993343544627741 -4.0704183167743375 0 1 0
15689 1 11.871079796909218 11.720508475753329 -1.4732783740067 1 0 0
15392 1 14.49914923735216 8.915131773047882 -5.05411926423958 1 0 0
11758 1 14.131634956380331 12.427913240705191 -4.684233569971873 0 0 0
11632 1 14.342751286777448 10.286315724068283 -2.753209416548977 0 0 0
9181 1 16.55699529235578 11.765553192857903 -2.001370522916752 0 0 0
17073 1 16.887154309569596 9.834226006597984 -4.028347516114451 1 1 0
16606 1 19.338297217683994 8.99995327540116 -4.121195680754923 1 1 0
9269 1 20.448808600878507 10.35984984351266 -2.0776802206558216 0 0 0
12310 1 20.717550857237047 11.738017079986651 -4.634387935245334 0 1 0
9975 1 24.97025364512013 9.57178447840627 -3.2076853744253113 0 1 0
13370 1 21.357614579013358 8.561475926652225 -5.894748949664232 0 0 0
13413 1 22.238665387626845 8.927448183415176 -3.555601496295652 0 0 0
13630 1 23.29992259176496 11.263659170620294 -5.0975486628771725 1 0 0
10558 1 23.48343863355479 11.441460081860209 -1.621999037451893 0 1 0
10814 1 0.16953869165135976 13.435570516335824 -4.73749554797232 0 1 0
16083 1 1.7228718218623043 14.152341622133813 -2.3670607127617656 1 0 0
10732 1 1.689701880541978 15.647987433995143 -4.539055754875073 0 1 0
13292 1 6.059784156390269 13.010991879412796 -5.876122823619999 1 0 0
15603 1 4.3575222230705695 14.516183644657831 -4.369146063006858 1 0 0
12938 1 7.036060886339258 13.929954385053794 -3.454655147965009 0 1 0
16010 1 4.422250795577493 14.609437987997584 -1.6074869244792724 1 0 0
14958 1 8.908677521461199 12.751755770755896 -5.96311607785054 1 1 0
8769 1 8.703032239792039 15.428613971653496 -2.0563293116776857 1 0 0
12692 1 10.020469037720076 14.48478839365711 -4.265201661522685 0 1 0
12864 1 12.720607187963152 14.687752014672128 -4.032987998586366 0 1 0
17071 1 15.663902311806622 15.561051090933113 -4.0664872594053705 1 1 0
10691 1 14.214995379298946 13.332320002895658 -2.147406198796192 0 1 0
8973 1 16.806252704620924 14.70115342160543 -1.9903497132910994 0 0 0
11253 1 16.99743172893926 13.070551810710235 -4.619597441853023 0 0 0
12443 1 19.055484820902354 12.837597620225933 -2.897902254752518 0 0 0
13231 1 19.524321415089354 14.988892266183806 -4.052682495075027 1 0 0
8836 1 21.195855541575995 15.775202868250895 -2.1365734243642844 0 0 0
12577 1 22.215513427941097 16.216808813329724 -4.9444756428375465 0 1 0
8949 1 22.645549221717943 13.78841090866325 -3.608664514299276 0 0 0
16397 1 24.771420861091425 14.822426783409561 -4.864042075307602 0 1 0
9069 1 3.4736423862645296 17.05300507926939 -2.5801398926042194 0 0 0
12641 1 3.9989855963826706 17.044676399162114 -5.4385115401374025 0 1 0
10532 1 1.959031716317344 18.50080573622717 -4.527501533267732 0 1 0
17240 1 0.908926664907312 17.38166922739584 -2.254864695561907 1 1 0
14570 1 4.267300791162956 19.769651593167275 -4.006263047797839 1 1 0
16157 1 6.102758631912583 16.744770809149006 -3.432814807809345 1 0 0
10883 1 6.918910599622426 19.374778938222533 -3.9125102249549855 0 1 0
10574 1 7.959676280482961 17.903176675158534 -1.7346839724935448 0 1 0
9001 1 5.056555617058229 18.973269869291006 -1.4599572376764354 0 0 0
10696 1 7.187540769705357 20.75862860574595 -1.6857887604948338 0 0 0
17496 1 11.00078135507587 16.84137180850012 -3.3298908198517814 1 1 0
11191 1 8.559529046429837 17.043628554708025 -4.981832442632638 0 0 0
13755 1 11.455472270283378 18.912096116008016 -5.14681783732521 1 0 0
11418 1 9.513676439885447 19.404704676717824 -3.2333919243430858 0 0 0
11098 1 12.415246133930408 19.192835105967873 -2.457477145179627 0 0 0
11496 1 13.539215010731223 17.30266008532005 -5.121097073180061 0 0 0
10652 1 14.143745528554813 17.101208995583228 -2.3157311793660718 0 1 0
10940 1 16.026447903726158 19.07546789730163 -5.371170222351072 0 1 0
17748 2 14.189828406438398 18.92486846680975 -2.5635771355345667 0 0 0
14866 1 18.370225734110587 17.422378405931408 -4.822137032818925 0 1 0
16512 1 19.038857893880632 19.967253549736828 -4.070794266066021 1 1 0
11865 1 18.645496982431816 17.296452470964176 -2.122861776758105 0 0 0
11141 1 20.148855089249576 20.36688412620583 -1.7329878512984862 0 0 0
8763 1 20.99517956814907 18.237686081305572 -3.277578068953374 0 0 0
13057 1 23.51777077275947 17.080168705061293 -2.6805667943812237 0 1 0
9476 1 23.584637770343015 18.932044295004115 -4.765307318832374 0 0 0
9294 1 23.00342221801099 19.780926966258857 -1.9879209720037598 0 0 0
19136 2 1.8135380708432762 24.668791780082586 -3.680188992640782 0 0 0
17443 1 2.0028380066234734 21.25850150578776 -4.412106392457359 1 1 0
10593 1 0.4285418753524525 23.959668049941875 -4.490031946843754 0 1 0
9006 1 3.505497507031279 24.429046880340845 -3.024435098056001 0 0 0
8903 1 3.4497880718487846 21.89854433324161 -1.9521980244535362 0 0 0
18911 2 0.013740410614908329 24.848615209694767 -2.855592643286361 0 0 0
19536 2 2.3594698844545947 24.982828566905937 -1.777911416088085 0 0 0
15779 1 4.191900319261963 23.839682252898964 -5.62911781004867 1 0 0
10743 1 6.995439084377602 24.225608504037094 -5.958735063596525 0 1 0
11216 1 5.737705517177266 22.18345069137144 -3.750987290869163 0 0 0
15973 1 8.20528027888507 21.906290678504536 -4.522710311325997 1 0 0
11776 1 10.746679137412983 21.749594554557838 -5.3432490479119785 0 0 0
10702 1 9.522969357943522 24.06901873404397 -4.334644663221729 0 1 0
13489 1 10.579294682136346 21.823554718745807 -2.6946817242172476 0 0 0
11304 1 11.127463515219356 24.81505200209201 -1.9575938623230507 0 0 0
9274 1 8.391538761525778 23.056271301857755 -1.612070476634131 0 0 0
15751 1 12.600644659419268 23.247708669207842 -4.123048257698138 1 0 0
10588 1 15.051011547208638 21.55208500232025 -5.954312765344646 0 1 0
10901 1 14.916536459195536 22.103296968954687 -3.290253271798927 0 1 0
11233 1 12.972762061752926 21.73058757898151 -1.5656013311520143 0 0 0
13230 1 15.80021666828221 24.440386414892423 -1.570649430519208 0 0 0
10274 1 19.902585143288395 22.195042105382885 -5.924510106457862 0 1 0
21395 2 16.68731041096143 21.851895473932622 -3.210665768352912 0 0 0
9797 1 17.24357890875256 23.282149444734603 -4.087180344408743 0 0 0
9283 1 19.973071058538135 22.92727266727078 -3.1129338779308617 0 0 0
15347 1 19.252118610380048 24.817270737052564 -5.291392649830531 1 0 0
10230 1 17.661661418189727 21.53626918942087 -1.7348140087834674 0 0 0
12494 1 21.52153234380637 20.95195650788495 -4.109406446373887 0 1 0
13621 1 22.181208033314654 23.591557365568423 -5.126641112373233 0 0 0
11157 1 24.06919232112505 21.754914490430647 -4.163129368705218 0 0 0
10066 1 22.239197904695516 22.362403926812146 -1.7213836246914278 0 0 0
15357 1 23.674872840921406 24.21111781392095 -2.6918997158797593 0 0 0
8824 1 0.2683347095889012 2.4886873957080287 -0.4858434462229854 0 0 0
10462 1 2.9045463701006686 3.2048152029193964 0.5303148737766178 0 1 0
20916 2 3.0717700322916337 3.5634048842090156 2.4564494026212818 0 1 0
21427 2 4.550387276845607 2.3112925221239315 3.0042269408187203 0 1 0
18243 2 4.282134635674326 2.035363048284692 1.0341594909504943 0 1 0
12894 1 4.560007949385696 0.2748878722145398 0.37633255560045786 0 1 0
10464 1 7.494759931927856 0.45416455443791404 0.03858647631241585 0 1 0
22235 2 4.647453181854326 0.45775709969649997 2.1874763147005347 0 1 0
10847 1 5.645080418825642 2.666322695482614 -0.0680829977180387 0 1 0
20424 2 7.608285672456084 2.241959385240858 0.591917916445698 0 1 0
10965 1 7.384099970658669 3.8025094863774336 1.2992665359267845 0 1 0
18827 2 6.014791655721681 2.719650073912207 1.704951673849367 0 1 0
19067 2 7.792150066866367 2.3676289873552836 2.5716533504186803 0 1 0
20423 2 8.08430961346151 0.19632334610538882 2.097297591992929 0 1 0
10827 1 9.410492417751675 2.933585878081123 3.1027201002758633 0 1 0
10873 1 11.724476216350121 1.7091020644343236 0.02234605381010901 0 1 0
19251 2 10.961057161270409 2.5393041652796136 1.6990878920642278 0 1 0
22215 2 10.344067871087868 0.703969179893785 2.0834767523477526 0 1 0
18799 2 9.118172960081461 3.2465131911379106 1.407077905602097 0 1 0
10888 1 12.251597249833027 3.9640402345582193 1.7712921132233284 0 1 0
21136 2 8.34375663377137 3.8809983180898073 -0.3068500232859907 0 1 0
23952 2 12.090617563432415 0.702397035038796 2.9203259277776286 0 1 0
21951 2 11.053010969552586 3.848387810243932 3.211050541635642 0 1 0
21808 2 12.543637172547259 2.6038159834158807 2.8796304573677194 0 1 0
21303 2 12.703876536595704 0.38674631027262235 1.0982038988036524 0 1 0
18928 2 15.36991804096831 0.31097476703438093 1.6922369521295644 0 1 0
10877 1 14.33017673308311 1.1804236850110719 0.605749663822191 0 1 0
19252 2 13.05272424238708 2.3802130817079497 1.026114464240884 0 1 0
18544 2 15.31211507138937 2.296115364559796 1.7418860417462643 0 1 0
21304 2 13.841514855126576 1.2506495382557934 2.444127688630243 0 1 0
21807 2 14.03492739047101 3.7552599540674976 2.2133958225091184 0 1 0
10853 1 15.742304169476297 4.0487509496635035 1.407421484801589 0 1 0
18319 2 20.512485961311334 3.942212867326528 2.7482559629519203 0 1 0