LAMMPS data file via write_data, version 29 Sep 2021, timestep = 7070170

31500 atoms
2 atom types

0 100 xlo xhi
0 100 ylo yhi
-20 120 zlo zhi

Masses

1 26.982
2 15.999

Atoms # atomic

11144 1 9.743710933804326 7.0153594727572655 -15.699580981017162 0 0 0
16041 1 0.9520328784953411 4.114632948481247 -12.531175568299927 1 1 0
10554 1 3.995543042653079 3.290602453268824 -11.64715176500362 0 1 0
11681 1 1.8231182239756678 1.9949439113635632 -10.857967011857514 0 1 0
11188 1 5.115509686598246 0.6639562155872835 -12.929847107963761 0 0 0
9770 1 7.2367744168980375 2.5364754073991533 -13.75153494558118 0 1 0
13136 1 6.204610153794112 1.836444355469133 -10.773063621538512 0 0 0
12845 1 9.630964646502948 3.0727636040473136 -12.695119941485075 0 1 0
8828 1 8.875549108549821 0.37748820586602877 -11.111083256479743 0 0 0
9334 1 10.884161026017065 0.5385901189328863 -13.11149703722523 0 0 0
10728 1 11.567918044279253 1.8067174511997943 -10.771215060072672 0 1 0
9239 1 12.549094079249684 2.855279806757433 -12.998207081551886 0 0 0
9896 1 15.236548142517858 2.674454801676864 -13.907624045886987 0 0 0
18524 2 13.810454558561851 3.7699083178996187 -13.958357677221079 1 0 0
12273 1 16.465366932455936 0.5855774092256384 -12.218298444131449 0 1 0
9281 1 14.635670653357707 2.2770894075727424 -11.176245359542827 0 0 0
10316 1 13.570180083827877 0.19229180871860307 -13.061147972169739 0 1 0
9470 1 18.25140320996518 2.191087353388992 -13.85846827974848 0 0 0
17344 1 18.562889334721593 1.9592613375936851 -11.020153571751024 1 1 0
15675 1 21.679161050545073 0.7435665296311342 -10.823897008085627 0 0 0
11506 1 23.978895154673328 2.515110885311406 -14.466856214273106 0 0 0
12716 1 20.87082541657392 2.5712721565776886 -12.722639667003914 0 1 0
14607 1 23.232802449141044 2.7885078468334745 -11.532575432808132 1 1 0
11092 1 22.65456484018446 0.3139274628847043 -13.578248911659504 0 0 0
11850 1 24.230315991864675 0.09638419379837518 -11.409613118763035 0 1 0
16444 1 2.717584114693706 6.199377092252297 -12.375003433223503 1 1 0
9321 1 7.149762337577402 4.399262709549548 -11.507159697303855 0 0 0
9402 1 5.357004141363487 5.023712318954023 -13.64184890824157 0 0 0
16742 1 6.896977723134009 7.050991916549274 -11.899482725215897 1 1 0
10968 1 8.273892397442523 5.3177596071625475 -13.984930125430521 0 1 0
17474 1 4.320789254361307 8.305349136709257 -11.52077036201768 1 1 0
9273 1 11.941958968451255 4.538699730082644 -10.841069390823009 0 0 0
15327 1 11.112060135465647 5.442452163788867 -13.67967942672508 1 0 0
17076 1 9.553613103125883 5.671554856164668 -11.350549223600076 1 1 0
13037 1 11.897696145041754 7.008232298498248 -11.696175475231092 0 1 0
16625 1 9.48217196198533 7.80687519734268 -12.95837691752995 1 1 0
20635 2 15.581869094132285 4.418258289223506 -13.52932940360813 0 0 0
9304 1 14.08864968577353 4.9379053665684856 -12.618305260878602 0 0 0
10937 1 16.435596413038596 6.4193389553802485 -10.91753672826959 0 1 0
10333 1 14.510654119532104 7.540944687042852 -13.336890664801233 0 1 0
15894 1 16.81002899580611 4.1855843119293255 -12.258250875356687 1 0 0
14896 1 17.438255243977633 7.330179623091325 -13.524598603554573 0 1 0
11467 1 19.91215177698674 5.779743013590781 -13.555874546728461 0 0 0
14062 1 18.979021106891203 7.811721717364957 -11.410440239828986 0 0 0
10073 1 18.984486769506276 4.870152685164717 -10.823734567827035 0 1 0
11208 1 22.38111128548949 4.600154987140921 -14.26130634732215 0 0 0
11112 1 21.757424109538512 7.732598203529415 -11.907724595852656 0 0 0
16995 1 21.898890715394586 4.991570190296014 -11.641096959541539 1 1 0
11314 1 24.49081562349804 5.249212367115089 -12.40405503111754 0 0 0
14823 1 23.157581168338652 7.135987020982299 -14.35655559826464 0 1 0
17087 1 24.989424263487265 5.14956798783915 -15.207775183381331 1 1 0
16010 1 4.591040692898664 11.144434391508183 -10.73271462285379 1 0 0
8816 1 11.999496223041946 8.37940782015017 -14.557518368457186 0 0 0
9476 1 11.289751786314342 11.366010930075175 -14.336665038424506 0 0 0
17496 1 8.752364934375118 10.565348575492834 -12.498478215851744 1 1 0
9613 1 11.5774994946584 9.609976776198177 -12.263100484502413 0 0 0
14792 1 14.22814793430398 10.48092390254603 -13.251226112827949 0 1 0
10777 1 15.48831648974581 12.080913854444102 -11.306381955244689 0 1 0
12871 1 16.19460361157972 9.27375884800288 -11.703564278483109 0 1 0
13006 1 13.846585794680587 8.785297708321846 -10.79773387023833 0 1 0
13251 1 20.15600224782464 8.503804622758325 -14.184828807399311 0 0 0
11195 1 20.359608175007136 10.211664502972498 -11.795575879483781 0 0 0
11622 1 18.121520557115836 10.103259180510337 -13.385838994777542 0 0 0
10415 1 20.535715327472435 11.403908314577379 -14.10602957336221 0 1 0
11370 1 24.45952222253127 8.40971060639065 -12.13149360956262 0 0 0
13122 1 22.701673140051298 9.762783829089447 -13.600999989005883 0 1 0
10120 1 23.163069412170213 10.201960079072984 -10.742345080188738 0 1 0
13537 1 24.769632007731374 11.918354913109805 -12.290865118515176 0 0 0
8952 1 23.118669847070343 12.389108051678644 -14.448649293601525 0 0 0
20504 2 1.0641068934060967 15.863635011062929 -11.370045505947214 0 1 0
18584 2 3.656687924601446 15.312162380789022 -11.680951136383914 0 1 0
9612 1 7.278935790510841 12.91439162989525 -11.812448822101393 0 0 0
15419 1 6.994251354121905 15.594383467401263 -10.763489862589319 1 0 0
9222 1 4.721821510393152 13.855006303537678 -11.448560551964887 0 0 0
10631 1 9.937539943676601 13.493811634423707 -12.553344372799945 0 1 0
11776 1 11.609791086914791 14.544244092939675 -10.735320026326185 0 0 0
13025 1 12.843673410148753 15.514546687104092 -13.076713531092471 0 1 0
11534 1 12.879590873576046 12.667116884398636 -12.458287241762724 0 0 0
12679 1 15.34036069932185 13.578842196840952 -13.573344397287029 0 1 0
10608 1 14.601926413608581 14.530511930147846 -11.049352359230513 0 1 0
16467 1 18.17980594482298 12.677903559394702 -12.891663227341592 1 1 0
12963 1 20.65777784312213 14.295511652895245 -13.062823294993397 0 1 0
13035 1 17.23763321727176 15.029479619808399 -12.13559256115569 0 1 0
17115 1 19.670809378494052 16.66650160082634 -12.08993135417738 1 1 0
10026 1 21.789662828617857 15.42116463057536 -10.931524144304449 0 1 0
17371 1 22.02682119686479 12.53348722561679 -11.828462489840065 0 1 0
10782 1 23.42981536160041 14.548018920356458 -12.67172357485308 0 1 0
9094 1 1.4565727747513677 17.6437503145047 -11.29933255777415 0 0 0
9186 1 3.1447761792985016 20.09771792463941 -11.496492342147306 0 0 0
16621 1 4.156985955389629 16.91720946055876 -10.951150270768402 1 1 0
15553 1 10.765055793736673 16.876204240287592 -12.28363682819056 1 0 0
12502 1 8.377892940096743 18.229741907772308 -11.353037875362553 0 0 0
15215 1 10.515597157695634 19.91253666615775 -12.661366648264305 1 1 0
9050 1 12.743275321626452 20.762650784416486 -10.869020715588057 0 0 0
11145 1 12.850294393802406 18.616360234517746 -12.73317685452846 0 0 0
14504 1 15.248877021329864 17.173545879833267 -12.2151660231825 0 1 0
11635 1 15.126769806074453 19.435892968246538 -10.685146498804368 0 0 0
14740 1 19.56423696124867 19.469298544323536 -11.638653202321388 0 1 0
19747 2 18.73149396092461 20.20203202541838 -13.087557915803856 0 0 0
11221 1 17.09461958036025 19.7115326359636 -12.596108819202511 0 0 0
11810 1 22.352523964032642 17.30939117964431 -13.110629891917384 0 0 0
10004 1 22.288060713144528 20.079629905914143 -13.156502916312093 0 1 0
12933 1 23.974200849450792 18.464216230236374 -11.13502689787668 0 1 0
15542 1 1.8681869155324615 22.39285904581593 -10.7986981133177 1 0 0
11473 1 8.283758328208712 23.67411385892951 -11.635109636621282 0 0 0
8905 1 5.452074710468791 23.589779597768377 -11.596720480413788 0 0 0
15836 1 10.674658754626307 22.895803137003877 -12.99633105811636 1 0 0
9176 1 12.207309066084033 24.768823379345292 -14.551414579723094 0 0 0
9704 1 10.63252440550009 24.606255388671705 -10.780718559093557 0 0 0
15347 1 9.81291965460952 21.469761307873238 -10.710998872701959 1 0 0
13630 1 12.955521451104767 21.414100393434293 -13.576406621087665 1 0 0
15284 1 12.95945512344345 23.49538572251572 -11.725968961869373 1 0 0
16512 1 15.572229040478788 22.068047811440096 -11.95350873513439 1 1 0
9188 1 14.955542378373913 24.295949019284038 -13.730848264725338 0 0 0
15639 1 15.3447470258466 24.8245300500986 -11.03579433087187 1 0 0
12475 1 17.947013135570117 23.84633454494857 -12.642780572375626 1 1 0
16103 1 19.71634538776617 22.038416740179258 -10.903957561650872 0 0 0
9588 1 19.647334272711955 21.629000996545805 -13.691899390154113 0 0 0
15000 1 24.027847045390896 22.118099776583904 -14.626516347779445 1 1 0
10510 1 22.03970096300416 22.772079069972758 -12.703452764630935 0 1 0
15116 1 23.777038424269097 24.838512829289 -13.874567386949707 0 1 0
12098 1 24.93028781320805 24.015538926002808 -11.174174418832406 0 1 0
12456 1 24.534855530804432 21.293397349869863 -12.09260105310721 0 1 0
17417 1 0.3265491319736067 1.4621862869607063 -6.225054480907834 1 1 0
13002 1 1.1209360829702177 3.444355004698475 -8.00134625350953 0 1 0
10744 1 3.096506646899142 3.753918015055193 -6.05484904139817 0 1 0
10294 1 3.1267615211243127 1.1114123940721343 -6.600090984519182 0 1 0
12712 1 3.8871094010442455 2.9439889397763532 -8.866189398791171 0 1 0
16391 1 1.8916639539833406 0.053567089150926915 -8.694453939829048 1 1 0
17053 1 4.702298827554142 0.17714094028305408 -8.840430646033479 1 1 0
17692 2 5.557316901390864 3.378510313268867 -8.275719705287797 0 1 0
11852 1 5.897476876573715 2.060634754830008 -7.076009957617113 0 1 0
14709 1 7.554220986890183 0.5363583660952004 -8.675269729545562 0 1 0
10351 1 8.847937380188414 2.889957638832691 -10.055646005275193 0 1 0
13775 1 10.55570390576068 0.9336675519506205 -8.485774359139652 1 1 0
9816 1 8.911560083600502 2.5964757039117603 -7.266654929356217 0 0 0
8982 1 12.304416289836974 2.181613009234944 -6.7604221882411855 0 0 0
12400 1 10.963504094766757 4.16207729411237 -8.288007479119534 0 1 0
10383 1 16.340413890445923 0.4400145584104981 -9.242384319036377 0 1 0
10540 1 13.695885005903856 3.703230977130538 -8.91764047558096 0 1 0
17233 1 15.24337218000626 2.162128237181499 -7.5350312520121 1 1 0
16970 1 16.63631778098004 3.9704286569384175 -9.410619722721007 1 1 0
9151 1 13.311665683201692 0.7804817364261967 -9.086060995134508 0 0 0
18784 2 18.040611029913396 1.1975032202077442 -9.362176947223459 0 1 0
9033 1 18.797260627190273 2.0402920350701064 -7.939512504651278 0 0 0
10722 1 17.08200014356113 3.7866200010845086 -6.4863307347739765 0 1 0
17110 1 16.9735886705984 0.2870805343672988 -6.435672089282174 1 1 0
13471 1 20.98151034534948 3.2606965475810754 -9.799977209417971 0 0 0
12981 1 21.75866851036262 1.225998445784301 -8.14779937749446 0 1 0
10083 1 24.342521920469142 1.6709231123683022 -7.032899805189561 0 0 0
12177 1 21.673450941433902 3.8790177947178037 -7.338803148184689 0 1 0
10143 1 2.247270602842431 4.757987806199595 -10.217238618218346 0 1 0
11087 1 2.8702289771424265 6.164210125417432 -8.044158991173816 0 0 0
13954 1 1.7965744998023385 7.807332613696533 -10.04885970388143 1 1 0
8806 1 1.0959288579212334 8.249367325470857 -6.9498412658854365 0 0 0
12896 1 1.0381024665615437 5.396588398485087 -6.146914554846823 0 1 0
17305 1 0.05808844723356342 6.180132911517507 -8.543734238828282 1 1 0
16452 1 4.870248269969986 5.62755886353191 -10.625126876631295 1 1 0
8839 1 5.166010052126117 5.077364021897962 -7.774452637280557 0 0 0
9064 1 5.972535972763195 7.739860830158752 -9.101981501045216 0 0 0
16968 1 7.143819052614476 6.386271740700952 -6.71493420270636 1 1 0
16352 1 4.439397847365699 6.910121163949047 -6.162873801730635 1 1 0
11012 1 7.860250339957409 5.572878863314557 -9.119371705478729 0 1 0
13383 1 10.757668390694672 6.911039017285055 -9.14703851614446 0 0 0
11935 1 11.113981162438831 6.903382027661565 -6.500555404077875 0 0 0
12617 1 13.997751308765896 6.24432986888588 -9.803610852294922 0 1 0
10044 1 13.415233802601058 5.849412219446214 -6.9955349298989 0 1 0
10863 1 16.637797359130296 6.1453444486502935 -7.927492997613108 0 1 0
11253 1 19.090788521380706 4.857256984220313 -7.839440030380148 0 0 0
14915 1 19.366984445305178 7.690878613134403 -7.689913919059625 0 1 0
10995 1 23.72861684047856 4.191676682345133 -9.03802334226744 0 1 0
12803 1 23.89871439603668 4.329397645106029 -6.278518731874662 0 1 0
9124 1 23.66534237242222 6.751821229345679 -10.209172809952783 0 0 0
17461 1 21.0045166840416 6.162858743231726 -9.234090100723192 1 1 0
10332 1 24.261671629575577 6.696292451587122 -7.600267259688678 0 1 0
8836 1 22.206123184607847 8.28376859321108 -7.404571964692962 0 0 0
9068 1 1.4022264336808492 10.94370146337876 -9.49311054605687 0 0 0
8965 1 1.3721852598076236 11.027303886711106 -6.856413786175622 0 0 0
16083 1 3.472351820545241 9.379691450391796 -8.55802758169131 1 0 0
10168 1 7.202463146986587 10.569607873194082 -10.1083214010636 0 1 0
17165 1 5.505509688590232 11.051468163673007 -7.898695669560752 1 1 0
9019 1 6.1761889994672154 8.83990313083749 -6.368480343934646 0 0 0
16593 1 8.704866141611427 8.444304733806256 -10.425567183113293 1 1 0
16809 1 10.941359079190832 11.765572158605819 -10.615665302636955 1 1 0
15638 1 8.65532328496595 8.486974684521073 -7.960324018003486 1 0 0
10290 1 9.354350447566844 11.359005317767418 -8.395626004009328 0 1 0
11232 1 11.78521048955778 11.057514367115052 -7.293140945016748 0 0 0
11496 1 11.298738315782524 9.560953629773104 -9.282731393671536 0 0 0
8769 1 9.01255664994061 10.460427333758366 -6.003607872436978 1 0 0
14071 1 13.061916058120934 8.43699476664935 -7.910893563281619 0 0 0
9181 1 15.64801491161726 8.477019224322264 -7.251087715444304 0 0 0
9585 1 15.3997762588122 10.43612785750626 -9.174576952996945 0 0 0
10539 1 14.324084934761276 10.738174191240548 -6.356732577027908 0 1 0
10672 1 13.372108684096501 12.404939380183533 -9.437629122839294 0 1 0
15985 1 16.77257565764375 11.268246180881176 -7.108611156439194 1 0 0
10525 1 17.341808805254917 8.595411966924882 -9.483109404784871 0 1 0
10458 1 18.08898369789754 11.100705960513402 -10.554675053142585 0 1 0
9848 1 18.971205072777323 10.192565572159989 -8.320767086133195 0 0 0
12796 1 20.915923414503393 8.896898456082138 -9.589384896039851 0 1 0
14696 1 20.892012502101597 11.671835520742627 -9.469070885185786 0 1 0
13179 1 21.364243544341655 10.821926726244229 -7.1115704983839585 0 0 0
15860 1 23.890255154068857 10.279889198190638 -8.191770991797934 0 0 0
11416 1 2.311631163499364 14.803747679910392 -10.538954423043096 0 0 0
16929 1 3.261656993865916 12.747142967566448 -8.984814835565455 1 1 0
9225 1 2.587180170097544 14.91421133803644 -7.172753455121272 0 0 0
11411 1 0.7120416208890872 13.523314108155786 -8.517513342939429 0 0 0
16656 1 7.78624017414861 12.941415153292105 -6.760701663460535 1 1 0
17026 1 5.0139528130941065 13.724921046135512 -6.939058978867449 1 1 0
9032 1 6.5127588529113245 13.06948866730978 -9.219006163950796 0 0 0
12494 1 4.8622193461252055 15.343130988916272 -8.872587608897534 0 1 0
11247 1 7.124249748343731 15.425319226444405 -7.461691960599565 0 0 0
14625 1 8.934612830451403 13.49440106389184 -9.83568178610369 1 1 0
12577 1 11.26761740854782 13.790419795675241 -8.2934484572185 0 1 0
10437 1 9.482413397547148 16.073994406659125 -9.66654330027148 0 1 0
15711 1 13.331075981002622 13.264069015183413 -6.741860396432417 1 0 0
12184 1 15.674651752586737 13.305274804607903 -8.494847311702799 0 1 0
14294 1 13.937054984993896 15.451319638556258 -8.341128939345149 1 1 0
8949 1 15.733977427174235 15.656815985821 -6.478415531545722 0 0 0
12848 1 19.375087392313446 13.991107589138986 -10.527899399366605 0 1 0
14227 1 18.525643077542544 13.099617108054774 -8.187481490638147 0 1 0
12675 1 17.093433490357683 15.476900545353539 -9.46105913471183 0 1 0
11189 1 18.28581299490093 16.427220030983246 -7.074547200675144 0 0 0
8928 1 23.39739227557127 12.790723885490888 -7.354971751985566 0 0 0
13370 1 21.23134397378833 14.123663287525268 -8.385449985310391 0 0 0
10346 1 23.610891141005464 13.81156306727679 -9.936485239340522 0 1 0
16473 1 22.55378792105818 15.607370143177862 -6.010757624331312 1 1 0
16172 1 22.802575271272197 16.492078539681458 -8.56519745622838 0 0 0
15572 1 2.0221843286948684 16.928432176847203 -8.75107917768957 1 0 0
10574 1 2.0884487681043007 19.6574972531389 -8.94671276987907 0 1 0
13903 1 0.9114135567844185 18.448802457748073 -6.832496367987152 1 0 0
10630 1 3.40093028925316 20.510513395531742 -6.770782098234761 0 1 0
11403 1 0.026205162222943786 20.278288467760532 -10.271893200558308 0 0 0
16791 1 5.6473027804381175 19.449610618492134 -10.622149716347645 1 0 0
16157 1 4.256202341952803 18.211859118719293 -8.222131539208114 1 0 0
12060 1 6.6154583203351836 17.487039201374923 -9.131664280517331 0 0 0
12005 1 6.135836932390242 20.275030204570445 -7.670888448217448 0 0 0
15315 1 8.37119506430887 19.724966259821496 -9.101743424954929 1 0 0
9393 1 10.907140293823623 18.643350929662482 -10.164393979162163 0 0 0
9330 1 8.843366410007228 17.69349584492065 -7.409976529496366 0 0 0
11508 1 11.466161925779554 16.700472077231424 -7.954345855791749 0 0 0
15551 1 10.954134841848388 19.60230022000047 -7.628656549488865 1 0 0
10676 1 8.562075133221773 20.043824201028244 -6.088771030075735 0 1 0
10274 1 13.10563312473458 16.796634933351605 -10.450996528482971 0 1 0
16899 1 15.663750749186645 20.09496773340321 -6.213753635374609 1 0 0
17332 1 13.398259391045615 18.601840707920484 -8.660572184027547 1 1 0
15883 1 15.960870995830321 17.82266339997056 -8.091944484762003 1 0 0
11632 1 13.904928143210723 17.46701786510886 -6.096681992732957 0 0 0
14963 1 17.399244495585815 17.846991372419616 -10.555485841399937 1 1 0
13318 1 19.866501959379953 16.747872556471684 -9.228602662800403 0 0 0
10254 1 20.31103504400897 19.731435790399015 -8.541123599606957 0 0 0
9200 1 17.672745567939067 20.441898427594563 -9.668363803660137 0 0 0
11157 1 18.17254416959415 19.415841561489135 -6.964640729401129 0 0 0
13117 1 21.52580306894632 18.135436521387906 -10.567089919401933 0 1 0
15438 1 23.159554059523508 19.09902636119541 -8.527416318562471 0 0 0
14402 1 24.78174952979962 20.637336190682074 -6.7048802248900365 0 1 0
8944 1 22.859129204915426 18.41520423333102 -6.091782354382691 0 0 0
9242 1 0.8491384357213542 21.083388833278498 -6.256266444276562 0 0 0
17055 1 2.372674865726391 22.863352386645214 -7.788904889730903 1 1 0
16400 1 1.261233947227912 24.772974974509534 -9.572593368011274 1 0 0
11122 1 4.176689380519332 24.493042887899463 -9.135175768138168 0 0 0
11043 1 4.433432973554418 21.670115219218562 -9.475041133532612 0 0 0
12001 1 7.215064800135335 22.026240392053104 -9.675566386517394 0 0 0
15468 1 4.8653145978077665 22.67319116243761 -6.918292970039015 1 0 0
10114 1 7.394540356573814 22.7624733261853 -6.528545673244312 0 1 0
10883 1 8.237245469445503 24.485444117997375 -8.8405101034763 0 1 0
9658 1 9.575439473123376 22.145737127254193 -7.772092878623438 -1 0 0
11261 1 11.704316853212223 22.74409742077144 -9.08330956766558 0 0 0
12938 1 10.629624905870216 24.360816849933254 -6.7236660203401 0 1 0
13211 1 13.304273757208465 21.023209247028785 -7.646875904644115 0 0 0
15879 1 13.251242996878073 23.950218089051493 -7.15639094805441 1 0 0
10702 1 14.568441455353431 22.51712737039812 -9.639027549945483 0 1 0
13728 1 16.655769585632317 22.068162112694623 -7.487955845201452 1 0 0
15540 1 17.226272998888057 23.093508437293675 -9.860180226604395 1 0 0
13231 1 19.842857225332985 22.596428700963912 -8.190133798101416 1 0 0
9738 1 19.387588248976837 24.583083832226958 -10.02780475631886 0 0 0
10677 1 17.9434986307863 24.63265485028094 -7.736942684422943 0 1 0
11283 1 22.139212098863297 20.892744266850073 -10.444309448719633 0 0 0
9531 1 22.074721666904153 23.543127920270983 -9.754629665514056 0 0 0
15447 1 21.744569852358342 23.528778880088208 -6.230594896337677 1 0 0
11432 1 22.56197251633503 21.52952023749459 -7.808843682917315 0 0 0
15755 1 24.443356061633786 23.333605105258552 -7.223882866328537 1 0 0
14209 1 24.934462655161948 21.11840603897946 -9.373802532953029 0 0 0
19207 2 0.5509701180366324 2.3802630784234355 -3.0630236700851077 0 1 0
12894 1 3.753803171470514 3.3258483986448653 -1.830709915169704 0 1 0
12828 1 2.088440344751925 2.024426990130701 -4.053904775417439 0 1 0
10292 1 0.8498330553314265 2.9645354354933153 -1.4336434730040064 0 1 0
11276 1 7.96253925883883 0.3468821188312861 -5.691149688218758 0 0 0
15418 1 5.121011328986163 1.993122075698742 -4.402680368228263 1 0 0
23215 2 5.152430935126977 2.462999655063726 -2.689077751730713 0 1 0
10464 1 6.696993365680044 3.5283155200365703 -2.6843698357232393 0 1 0
17162 1 7.756614972581582 3.0362163270545666 -5.085366689228626 1 1 0
17413 1 8.194100562469174 1.1892708285821854 -3.183080553930878 1 1 0
11640 1 10.246814835451378 1.3567164795770523 -5.17676027016026 0 0 0
20708 2 11.344200310297778 3.3148456663978356 -2.2998285187986744 0 1 0
9492 1 9.712166585159894 3.392516692110576 -3.2458396620437493 0 1 0
9932 1 12.359075867756905 2.7381742107421743 -3.6947756069368745 0 1 0
19743 2 15.007970372290378 0.01420478792121826 -1.6652550956297556 0 0 0
10161 1 14.25104166238867 3.5905250426560573 -5.428028775311275 0 1 0
9949 1 14.262909124065446 0.7245078151982098 -5.087794492845404 0 1 0
10151 1 16.39670530147272 1.7700524718218305 -3.9865318440067585 0 1 0
9944 1 15.134673370395843 4.1401334698680055 -2.8846885648959995 0 1 0
10411 1 13.330437148357666 0.7671053868198803 -1.9599953260582952 0 1 0
19675 2 16.61505304469255 3.131375730156213 -2.917599387844169 0 0 0
12474 1 18.83372518448701 0.5950254833964721 -2.215283009103095 0 1 0
17019 1 20.024947695715447 3.3189870009595506 -2.6028617914374235 1 1 0
11864 1 18.86936200665318 1.692266333225559 -5.029757305920701 0 0 0
19759 2 18.332247423211218 3.725978255397698 -2.141484717814403 0 1 0
11235 1 21.765474212200314 1.8389585060108355 -5.1921825626093945 0 0 0
12160 1 22.73406707542329 1.72953267277817 -2.5132046872474465 0 1 0
12836 1 24.528629578259935 1.3249005621342993 -4.478812478271527 0 1 0
12553 1 24.54990608964171 0.22078225427716705 -1.3440192844395673 0 1 0
13068 1 24.954052896839872 3.7466678600381007 -2.5181390236067442 0 1 0
10903 1 2.2713456267508514 4.87960812362061 -3.813169903037945 0 1 0
10607 1 2.30259123282343 7.394976307438666 -4.417663856102281 0 1 0
10462 1 2.3186733845918033 6.4841623668331945 -1.549833604033566 0 1 0
15878 1 5.607104280322411 4.895703940968472 -4.8779254445260385 1 0 0
10847 1 4.94912735454047 5.567152689382148 -2.06694376794373 0 1 0
17185 1 5.600895194975163 7.726018364885692 -3.5229744771395968 1 1 0
20424 2 6.592362476213059 4.946252355528485 -1.527599424713448 0 1 0
10398 1 8.303374705125124 5.511216703363948 -4.516655796697439 0 1 0
10661 1 10.834760962197471 4.433523371903742 -5.421889097810916 0 1 0
10697 1 8.46581234005007 7.275468465872566 -2.317004233620287 0 1 0
12734 1 10.845913505871927 6.816761188616958 -3.665771810164967 0 1 0
15485 1 9.030742407042247 7.939564554896911 -5.404026960373057 1 1 0
10873 1 10.941725897315738 4.863731554441721 -1.4832562111973286 0 1 0
16510 1 15.630603438733562 5.926280451081603 -5.166665720559806 1 1 0
14457 1 13.219678390510545 5.592089962916207 -3.6797236243545886 0 1 0
9261 1 13.595608872355342 8.067417871374499 -5.301384230343464 0 0 0
17265 1 13.180698799289972 8.273295458638916 -2.4974480621937536 1 1 0
10494 1 16.770083236014653 6.54828733477604 -2.665839032203445 0 1 0
8771 1 17.808098418047493 4.191624005026083 -3.748517080746648 0 0 0
10902 1 18.328225433342194 6.368423965857881 -5.510736209412658 0 1 0
10134 1 20.117358750830096 4.341826715970835 -5.173083961494295 0 1 0
19692 2 17.595402199874844 8.001610680348517 -1.8188307102568981 0 1 0
18839 2 19.533148516704014 7.541339570686269 -1.8266790943747622 0 1 0
11137 1 20.085932175524043 6.351589292362152 -3.18983966161072 0 0 0
15043 1 22.648987372093288 4.185858220016141 -3.939195111225363 0 1 0
14382 1 21.83394507895785 6.468527599269565 -5.540238277242613 0 1 0
12625 1 23.026768264291576 6.961265955930103 -2.941360327408903 0 1 0
18755 2 0.6402328511732319 9.59908508128177 -2.492227562733562 0 1 0
13354 1 1.4891871332644118 10.05211176393744 -4.1196174036419295 0 0 0
15614 1 1.755797771977388 10.903262397332176 -1.6925388322497148 1 0 0
10967 1 3.6108339369734876 9.492151785415382 -5.926252953918366 0 1 0
11545 1 3.325979407012891 12.286770070198227 -5.2588670893430605 0 0 0
14019 1 4.364930119765547 10.204846865609799 -3.6746849958274845 1 1 0
17431 1 5.995516709253849 11.575729739798355 -5.336292037598202 1 1 0
16657 1 7.389565725984334 9.658427847212684 -3.8897677878103822 1 1 0
14660 1 6.417375715328064 11.829900413205774 -2.5683288298391043 0 1 0
18535 2 8.551386525329352 9.155815857309193 -2.52382701417757 0 1 0
9957 1 11.433256516197282 9.713434590872223 -4.837211497344377 0 1 0
9022 1 10.44016561754353 9.24876626957351 -2.240462788470133 0 0 0
10017 1 9.911395487986114 11.836967170164261 -3.154500096886556 0 1 0
11758 1 12.430774756832712 11.199779327659172 -1.8492160735872485 0 0 0
10691 1 12.498458710343359 12.348071070746736 -4.251978028526763 0 1 0
15392 1 16.130065908736658 8.549440389988536 -4.647941025056201 1 0 0
11906 1 14.285042496204452 10.380392648324554 -3.6992441192256544 0 0 0
10986 1 16.284846097714908 9.14682895547916 -2.139504485060164 0 1 0
12728 1 14.902192638110227 11.904368802432824 -1.5786547975850862 0 1 0
11206 1 18.419584159180197 9.196454358785708 -5.756686947798155 0 0 0
8964 1 19.24854744155738 11.774146089516739 -5.82998535580801 0 0 0
9098 1 17.005128590060433 11.244462240606335 -4.130471887961315 0 0 0
13066 1 18.71749489367539 8.75090597723525 -3.067409302823247 0 1 0
19216 2 19.72246577828787 12.304809486479979 -2.3446506992291165 0 0 0
18472 2 17.824055278885762 12.370495865616133 -2.9181335542457587 0 1 0
13090 1 18.285337557188324 11.523809738395727 -1.3869101661704073 0 1 0
16606 1 20.742377304710516 8.890584901944408 -4.90751297187474 1 1 0
13021 1 20.883197382534178 10.874420173728726 -2.4787181044199746 0 1 0
12973 1 24.37848936874961 10.921315070411925 -5.5333294062543334 0 1 0
12347 1 22.967868786607696 9.704232818003947 -3.5798954371518503 0 1 0
11110 1 21.98119287160006 11.94248018985655 -4.819809099657787 0 0 0
17270 1 0.4104793998337523 13.831342567254739 -5.905019538765539 1 1 0
12864 1 1.2991977002990658 12.813062272642796 -3.505943826464447 0 1 0
15643 1 2.707108398618241 14.83229107858616 -4.408119510630963 1 0 0
9306 1 3.975226653150109 12.958588710337676 -2.2409174861649697 0 0 0
17035 1 0.814569690319943 16.540259725322553 -5.111530290565529 1 1 0
17128 1 4.770302274439592 16.243196798473104 -5.822545113429372 1 1 0
9103 1 5.466193884756178 14.008187561259355 -4.28979802871315 0 0 0
11619 1 4.472092139276197 15.952114104939866 -2.6613854538747628 0 0 0
9777 1 7.002342089086756 16.20726528663758 -4.074594060103858 0 1 0
10814 1 8.10501610967318 13.5427151011536 -3.9687316150725533 0 1 0
10961 1 12.026903272001165 15.330225259388818 -5.822140532532313 0 1 0
17385 1 10.260168332070881 12.933963329631638 -5.95807814462341 1 1 0
9682 1 9.241302193164517 15.534776627726599 -5.765396273172544 0 0 0
11239 1 10.657309587029953 14.439792722790786 -3.4412579879205865 0 0 0
13489 1 8.525797439294191 14.95546345598277 -1.382189192996801 0 0 0
11056 1 13.293465258300785 14.27698004747858 -2.3166092132854637 0 0 0
12525 1 15.042591934150204 13.1688790729214 -4.441865073891557 0 1 0
10690 1 14.937340446549769 15.918013073060958 -3.872088230005248 0 1 0
15452 1 20.19712497001983 14.466260758871774 -5.944796190623141 1 0 0
15984 1 17.439818608842398 13.760907898483977 -5.822951114166037 1 0 0
9615 1 17.98172015467177 15.940122155961433 -4.320461154256379 0 0 0
9269 1 19.15227916468064 13.383130366005291 -3.6404541866338875 0 0 0
18471 2 18.57172818866843 13.901510492935943 -1.950576003279918 0 1 0
14720 1 20.431062922534924 16.088956626393003 -2.885375796665537 0 1 0
19215 2 20.419162449018618 14.136232619275019 -2.6693783254790286 0 0 0
11011 1 17.880887293021313 15.521496929688556 -1.5952272564969148 0 1 0
17564 2 19.673542733121348 15.448097365051224 -1.3398061881293404 0 1 0
13392 1 24.513426506078833 13.848813555869196 -5.158076966495191 0 0 0
10558 1 22.090106842748767 14.249149865067327 -3.5547041419019836 0 1 0
11019 1 24.831564486052088 14.251165421714436 -2.603218807128969 0 1 0
17384 1 3.262378040512662 18.43432783063628 -5.267067666933569 1 1 0
16496 1 2.1550578791680204 17.1376151176021 -2.798939113009642 1 0 0
10703 1 0.7689188727670541 19.205686772327475 -4.1189203329352155 0 1 0
9111 1 1.9494838250233704 20.282725376359558 -1.5075091525378093 0 0 0
9654 1 6.376438125446099 18.388932732796043 -5.735657761393064 0 0 0
17202 1 5.281711724461198 18.525241632170196 -3.1875890058894085 1 1 0
9001 1 4.630915045047492 20.692727393514918 -1.6070259365049038 0 0 0
11242 1 8.10024422180755 19.467074772353534 -3.3689525390884665 0 0 0
14923 1 6.8065229034475445 17.179456881330218 -1.3687933824664769 0 1 0
15610 1 12.276841588407217 16.83644011821567 -3.7217781027539063 1 0 0
13097 1 10.668527519342371 18.018456919880546 -5.353371378363613 0 1 0
17073 1 9.401629615811686 16.94041593225046 -3.1830366541361443 1 1 0
9589 1 11.488795048843262 20.58022669749331 -5.19311632896039 0 0 0
10271 1 11.327831745828144 19.214698348579454 -2.447784105218504 0 1 0
14958 1 13.955227470395805 18.916307813738786 -3.8070384607247507 1 1 0
9131 1 16.08460699194249 20.397180857771055 -2.8450004852487254 0 0 0
13755 1 16.322862749329712 17.72979875612419 -2.1394387715653114 1 0 0
11024 1 13.618362744764667 17.496387079481533 -1.3946960511884832 0 1 0
13161 1 16.771819429537427 18.124776025561236 -4.878410267653904 0 0 0
9758 1 18.826025538391644 18.318969878220376 -2.9790750570825826 0 0 0
16218 1 19.962896602639404 20.721679908445207 -2.2140372756115503 1 0 0
10671 1 20.095902870769276 17.5776003318633 -5.49634021334493 0 1 0
10588 1 24.811771923591596 19.50590938697783 -4.2311462810490905 0 1 0
10794 1 22.01313010989853 19.708809530228557 -3.933498705516487 0 1 0