LAMMPS data file via write_data, version 29 Sep 2021, timestep = 7070164

31500 atoms
2 atom types

0 100 xlo xhi
0 100 ylo yhi
-20 120 zlo zhi

Masses

1 26.982
2 15.999

Atoms # atomic

11144 1 9.743678647868242 7.015287334724922 -15.699772796182717 0 0 0
16041 1 0.9520839917999824 4.114900250389642 -12.530974475070476 1 1 0
10554 1 3.995193254806323 3.2906280800391694 -11.64657467273778 0 1 0
11188 1 5.115534472010394 0.663836645686974 -12.929749817710345 0 0 0
9770 1 7.237180917255723 2.5363625581714326 -13.751734433639717 0 1 0
13136 1 6.204334427848577 1.8364972244385642 -10.772895923597805 0 0 0
9321 1 7.149958276683424 4.399710475466875 -11.50702553713392 0 0 0
9239 1 12.549271868543102 2.8553072005483293 -12.99771067535604 0 0 0
12845 1 9.630568032419191 3.0725980416123755 -12.695331209916496 0 1 0
8828 1 8.875363454898947 0.3774852314614092 -11.110965915934093 0 0 0
9334 1 10.883843893429018 0.5393521111417421 -13.111433207827455 0 0 0
10728 1 11.568064383209737 1.8064463711685583 -10.771114247333301 0 1 0
9896 1 15.236365913163132 2.6748638426461784 -13.907701972365485 0 0 0
18524 2 13.810844024405336 3.7700978811618864 -13.958139355189575 1 0 0
12273 1 16.4656155070982 0.5847479959658213 -12.218054203855038 0 1 0
9281 1 14.635723348712487 2.276971289654964 -11.176575253457678 0 0 0
10316 1 13.57037737541801 0.19233800586817465 -13.061146440280512 0 1 0
20635 2 15.582248470297607 4.418025187922007 -13.529038766300301 0 0 0
9470 1 18.25148998858065 2.1910863463165784 -13.858739659500781 0 0 0
17344 1 18.562875878241602 1.9588206125162384 -11.020490848916404 1 1 0
15894 1 16.809517211771315 4.186069976947138 -12.25851318415837 1 0 0
15675 1 21.679487816265112 0.7438028682886851 -10.823747899843369 0 0 0
11506 1 23.978522396117185 2.5152853342914527 -14.466971703778745 0 0 0
12716 1 20.87115213493363 2.5711631505862935 -12.722387654473145 0 1 0
14607 1 23.23206709489903 2.7887259566218066 -11.532492491535683 1 1 0
11092 1 22.654846513956773 0.31376405286804226 -13.578257047440138 0 0 0
16444 1 2.7173971290668635 6.1992531468787515 -12.3748230936172 1 1 0
9402 1 5.356926061880601 5.02372740855558 -13.642239680283737 0 0 0
16742 1 6.896956719839372 7.051069098123261 -11.899309609349357 1 1 0
10968 1 8.274012270177442 5.317785380410308 -13.985165968512126 0 1 0
17474 1 4.320679306188219 8.305199552369853 -11.521118201271582 1 1 0
9273 1 11.941984773209143 4.538983305101877 -10.8410752961403 0 0 0
15327 1 11.112022998034172 5.442657723004824 -13.679568086175525 1 0 0
17076 1 9.55396461518199 5.671721215737531 -11.350748035891618 1 1 0
13037 1 11.897305103796368 7.00776553606447 -11.696165220736827 0 1 0
16625 1 9.482138528552536 7.80669767849918 -12.957979358972983 1 1 0
16593 1 8.704470552220133 8.444441860615967 -10.42510217046475 1 1 0
9304 1 14.088422801647335 4.937468116257718 -12.618724251296692 0 0 0
10937 1 16.435673316753412 6.418986191682884 -10.917422235896492 0 1 0
10333 1 14.510678688205408 7.5408359101782185 -13.337051104442954 0 1 0
14896 1 17.4384793396048 7.330381260055299 -13.524449300107221 0 1 0
11467 1 19.912060414713974 5.77977388962963 -13.556265809799648 0 0 0
14062 1 18.97874731217167 7.811840727177924 -11.410383158321208 0 0 0
10073 1 18.984244191588157 4.870093669333707 -10.823607436117104 0 1 0
11208 1 22.38139728251165 4.600316786239132 -14.261328471875213 0 0 0
11112 1 21.757506710406147 7.732678156527937 -11.907677340962003 0 0 0
16995 1 21.89925031596868 4.991074986419945 -11.641238690974657 1 1 0
11314 1 24.490452038620234 5.249081000358259 -12.403972583290708 0 0 0
14823 1 23.157529093814592 7.135713381371402 -14.356694931827148 0 1 0
16010 1 4.590999831794404 11.144614740180078 -10.732779727701047 1 0 0
8816 1 11.999489191914918 8.37957079026034 -14.557593525873965 0 0 0
9476 1 11.289808133800335 11.366126937104914 -14.336893352418233 0 0 0
17496 1 8.751990767791279 10.565306525947669 -12.498519677517278 1 1 0
9613 1 11.577583817907033 9.609591168209311 -12.26370609883187 0 0 0
14792 1 14.228369667254322 10.481120773770524 -13.251022680073277 0 1 0
10777 1 15.488013560535029 12.081102629794875 -11.306407576086727 0 1 0
12871 1 16.19445995128772 9.273850865827843 -11.70317259760988 0 1 0
13006 1 13.847021225342562 8.785243743500189 -10.797961938741356 0 1 0
13251 1 20.15575580234584 8.503896763188788 -14.18497110300266 0 0 0
11195 1 20.35934933999188 10.211656403624424 -11.795666803514028 0 0 0
11622 1 18.12168509909432 10.103438710703875 -13.385874554922458 0 0 0
10415 1 20.535804504609896 11.403565769682046 -14.10578520209644 0 1 0
11370 1 24.45908172573609 8.409953421112522 -12.131227657360965 0 0 0
13122 1 22.701913179057986 9.762555134015379 -13.601055293523066 0 1 0
10120 1 23.16348425022096 10.201850324190897 -10.742193979141756 0 1 0
13537 1 24.76973818626521 11.918304355199938 -12.291317959402061 0 0 0
20504 2 1.0645017022616006 15.864009738050777 -11.369867596586388 0 1 0
11416 1 2.3118006199841825 14.803361285400053 -10.538688334563153 0 0 0
18584 2 3.656767762281971 15.312093841925305 -11.681332811165246 0 1 0
9612 1 7.279129214836407 12.914552405687386 -11.812103452031486 0 0 0
15419 1 6.994249138611262 15.594985018768579 -10.763113492375144 1 0 0
9222 1 4.721965649128712 13.854683362935216 -11.448845820235753 0 0 0
10631 1 9.93744967217444 13.493893028392 -12.553057664630021 0 1 0
15553 1 10.765619728391874 16.87619271728799 -12.283942706111805 1 0 0
13025 1 12.843200865176486 15.51478785637462 -13.076650437087391 0 1 0
11534 1 12.879741523500813 12.66695567933286 -12.458539494552637 0 0 0
12679 1 15.340427194337149 13.57892353314166 -13.573236992568125 0 1 0
16467 1 18.179730489074867 12.677869449886412 -12.891777542301414 1 1 0
12963 1 20.658258409851104 14.29556460893118 -13.06214300261561 0 1 0
13035 1 17.23767762511143 15.028963497408222 -12.135663049707748 0 1 0
12848 1 19.37507106212522 13.991122044651968 -10.527590270203287 0 1 0
8952 1 23.11861773905436 12.38902407838915 -14.44858473448527 0 0 0
10026 1 21.790042891055123 15.420876505277466 -10.932037987320408 0 1 0
17371 1 22.027006562487117 12.53428240288717 -11.828830820422755 0 1 0
10782 1 23.429041076358505 14.547674886962463 -12.671134804563682 0 1 0
11498 1 22.52607757599046 22.94771228176223 1.0389996085585922 0 0 0
9094 1 1.4567127166124203 17.64375264623593 -11.299339617043415 0 0 0
9186 1 3.145022973507443 20.098010624992288 -11.496517860397423 0 0 0
12502 1 8.377930137598907 18.229913557787192 -11.352952766803083 0 0 0
16621 1 4.156701477640481 16.91720006612357 -10.951141757014778 1 1 0
15215 1 10.515669448119382 19.912636477139884 -12.661109216935097 1 1 0
9050 1 12.743387709709172 20.762596243507033 -10.869203176534374 0 0 0
11145 1 12.849875717104497 18.616447050449977 -12.733326627914346 0 0 0
14504 1 15.24881188491779 17.17373191516761 -12.214957615508663 0 1 0
14740 1 19.564176462429405 19.46915936939857 -11.638534630328504 0 1 0
19747 2 18.73090193510494 20.201982215178578 -13.087763441425235 0 0 0
17115 1 19.67115855309821 16.666317441880235 -12.089942561691208 1 1 0
11221 1 17.09535765360679 19.71156045904725 -12.596097590284613 0 0 0
14963 1 17.398981729929332 17.84706246457664 -10.555382510740031 1 1 0
11810 1 22.352298927588258 17.309784883586712 -13.110596161706324 0 0 0
10004 1 22.28816527660614 20.07970685396753 -13.156551230265642 0 1 0
12933 1 23.974200361116186 18.463941252949223 -11.134912631262484 0 1 0
11500 1 20.811518336283 24.854156285413556 1.4335864649312948 0 0 0
13117 1 21.52569065511846 18.135199914941744 -10.567062471690182 0 1 0
15542 1 1.8681585660043882 22.3928999500729 -10.798963888940364 1 0 0
11473 1 8.284002658588348 23.674117892901172 -11.63510966317245 0 0 0
8905 1 5.451954427090056 23.590095581456776 -11.597036240379921 0 0 0
15836 1 10.674839439954296 22.89611413898912 -12.996252676669085 1 0 0
9176 1 12.207273462036902 24.769028142841236 -14.55160328573214 0 0 0
9704 1 10.63230763627004 24.606255662168554 -10.780888814700264 0 0 0
13630 1 12.955308079904459 21.413999228693985 -13.576394787392134 1 0 0
15284 1 12.959225666038165 23.495444327313063 -11.725883930486567 1 0 0
16512 1 15.572168059118482 22.068260324712636 -11.952979815886389 1 1 0
9188 1 14.955568066132813 24.295829382381985 -13.730921018226946 0 0 0
15639 1 15.344605941046893 24.82450918056078 -11.03560832264629 1 0 0
12475 1 17.94707263259161 23.84616865759393 -12.643050816246149 1 1 0
16103 1 19.71654656094303 22.038416451874483 -10.903775047257398 0 0 0
9588 1 19.647294971408865 21.628978404090258 -13.692101693117461 0 0 0
15000 1 24.027838469690828 22.118358915219417 -14.626531272303588 1 1 0
10510 1 22.039539761882466 22.771865693448746 -12.70387156644437 0 1 0
11283 1 22.139030365059547 20.89294704752345 -10.444123231560413 0 0 0
15116 1 23.77710548163404 24.83855182263458 -13.87457038624307 0 1 0
12098 1 24.930499473983307 24.0155638559956 -11.174183082053402 0 1 0
12456 1 24.534875207851986 21.29338698868764 -12.0927222578406 0 1 0
11681 1 1.8236084247900863 1.9951157141344669 -10.858269481119697 0 1 0
17417 1 0.326599673294173 1.4621138819057775 -6.224873728025151 1 1 0
13002 1 1.1206811425097283 3.4445407362851177 -8.001181704772108 0 1 0
10744 1 3.095786123925056 3.7539901434152307 -6.054629350902843 0 1 0
10294 1 3.126467230104658 1.1116083109867707 -6.600456008847119 0 1 0
12712 1 3.8870396933872504 2.944097843018886 -8.866246703998529 0 1 0
17053 1 4.702278883902767 0.17702475270026297 -8.840810287940055 1 1 0
17692 2 5.557567763327365 3.378362071095893 -8.2762021541504 0 1 0
11852 1 5.897459884778088 2.0602291881061516 -7.075969507137595 0 1 0
14709 1 7.554254842860701 0.5364059871100291 -8.675477215633373 0 1 0
10351 1 8.847766916225478 2.8897895953935713 -10.056054962879958 0 1 0
13775 1 10.555865827530742 0.9339680733210056 -8.4858691784271 1 1 0
9816 1 8.911553573972629 2.5961464843353443 -7.266207081450457 0 0 0
8982 1 12.304248672872058 2.1815609874376967 -6.76048747918631 0 0 0
10383 1 16.34039298304276 0.43980049417622014 -9.242002624106664 0 1 0
10540 1 13.69612746920428 3.7032608482934015 -8.917685489564864 0 1 0
17233 1 15.243417363202644 2.1625090585158517 -7.535263145129328 1 1 0
16970 1 16.636695882020074 3.9702189517427473 -9.410475351376746 1 1 0
9151 1 13.311695515060316 0.7804246519341548 -9.08626403554733 0 0 0
18784 2 18.040036326667988 1.198299131152444 -9.361289982546785 0 1 0
9033 1 18.796908015569656 2.0399459451224735 -7.939973768496396 0 0 0
10722 1 17.081977009730963 3.7867553067147606 -6.48680287314345 0 1 0
17110 1 16.97378668747971 0.28699441266648107 -6.435777608252643 1 1 0
13471 1 20.981781271637892 3.2608550262978393 -9.79986755669888 0 0 0
12981 1 21.758900585186257 1.2259998880479992 -8.147793523926273 0 1 0
10083 1 24.342586069618907 1.670618459985123 -7.032658878373252 0 0 0
10995 1 23.728437499096348 4.191733088336995 -9.037671169895264 0 1 0
12177 1 21.67396099823682 3.8790892600733597 -7.339058115674634 0 1 0
12803 1 23.898369558431664 4.329230225024252 -6.278600904689915 0 1 0
10143 1 2.2476134996823283 4.757846620290648 -10.217658300055735 0 1 0
11087 1 2.8707096589602554 6.164050743745744 -8.043747248365502 0 0 0
13954 1 1.7961075914669822 7.8068830673513006 -10.04913875090732 1 1 0
8806 1 1.0955833564444926 8.249208702166886 -6.949629956118849 0 0 0
16452 1 4.87024693225575 5.627432482599776 -10.625396338033912 1 1 0
8839 1 5.16549058544149 5.07818177526577 -7.773937491489047 0 0 0
9064 1 5.972531310472408 7.7396233589163135 -9.102021285753239 0 0 0
16968 1 7.143572550725711 6.386291535153606 -6.714944768180869 1 1 0
16352 1 4.439755887881006 6.909814375877122 -6.163359238154358 1 1 0
11012 1 7.859993593332383 5.57282616245635 -9.119207539892166 0 1 0
12400 1 10.963741648138575 4.161870153097703 -8.288040201683671 0 1 0
13383 1 10.75772049472501 6.911343453602049 -9.147011812229655 0 0 0
11935 1 11.11402236451551 6.9032379836784905 -6.500600866925001 0 0 0
12617 1 13.99783928215006 6.244388160368133 -9.803779634030134 0 1 0
10044 1 13.41480628036837 5.8496854658799045 -6.995408430058113 0 1 0
14071 1 13.06175480989651 8.437072414319836 -7.910804827984432 0 0 0
10863 1 16.63789461171486 6.145015741950635 -7.927377658652372 0 1 0
11253 1 19.090543427120448 4.857244402044564 -7.8392039549945105 0 0 0
14915 1 19.366909284809793 7.691449064969144 -7.68992434471901 0 1 0
9124 1 23.665382362422505 6.751936602447091 -10.209359401468676 0 0 0
17461 1 21.004148524423016 6.162907232357348 -9.233963103953199 1 1 0
10332 1 24.261692317527565 6.696464557378642 -7.600452734811781 0 1 0
8836 1 22.20612278633196 8.283935861376223 -7.404774192916011 0 0 0
9068 1 1.4025432479254134 10.944188448288314 -9.492540480473746 0 0 0
8965 1 1.3720183351275337 11.02714480773977 -6.856741141177047 0 0 0
16083 1 3.472253925393938 9.380029055766753 -8.557812881801244 1 0 0
10168 1 7.202409318069865 10.569619077895133 -10.108462128179871 0 1 0
17165 1 5.505680382944656 11.051697641632904 -7.898652012490366 1 1 0
9019 1 6.17571318409675 8.839329266297552 -6.368520421690915 0 0 0
16809 1 10.94138908594586 11.765485119095832 -10.615519010902243 1 1 0
15638 1 8.655404744992333 8.486879403376989 -7.9605976237389156 1 0 0
10290 1 9.354605249799418 11.35914384764356 -8.395429674728993 0 1 0
11232 1 11.784996802961297 11.057321641431924 -7.293470674992604 0 0 0
11496 1 11.299099902606383 9.561288896927376 -9.281832329120105 0 0 0
9181 1 15.647867883368953 8.477012925292643 -7.2511293328033855 0 0 0
9585 1 15.400106261484417 10.436163538480944 -9.174500859818846 0 0 0
10539 1 14.324245180402398 10.738191694662827 -6.35680128446013 0 1 0
10672 1 13.372320113249335 12.40502042626845 -9.437432154192384 0 1 0
15985 1 16.77219957078842 11.268404610891416 -7.1090373550267545 1 0 0
10525 1 17.341908331492842 8.595905695889531 -9.483623397514773 0 1 0
10458 1 18.089227834604078 11.10031517962948 -10.554429797365202 0 1 0
9848 1 18.97115400109587 10.19201360816427 -8.321430565123572 0 0 0
12796 1 20.915819626268863 8.896968135981064 -9.58932437573357 0 1 0
14696 1 20.891821446722272 11.671489514575857 -9.468527232336335 0 1 0
13179 1 21.364060449398494 10.822113917423328 -7.111768792448919 0 0 0
15860 1 23.890862029805405 10.279987764918852 -8.192145297423167 0 0 0
16929 1 3.260966192914014 12.747038818198922 -8.985128114417845 1 1 0
9225 1 2.5871783735847687 14.914230560808384 -7.172849606459309 0 0 0
11411 1 0.7119839957090927 13.523051035288383 -8.517327588171906 0 0 0
16656 1 7.786377271275453 12.941367117243985 -6.760524069871603 1 1 0
17026 1 5.013954778870613 13.725557260335526 -6.939351902593783 1 1 0
9032 1 6.513274175521116 13.069266713497848 -9.2190695621988 0 0 0
12494 1 4.862788846712871 15.342809673879415 -8.872140691610198 0 1 0
11247 1 7.12397553751043 15.425038142498899 -7.461602750171104 0 0 0
17128 1 4.770360217980028 16.24318973972013 -5.822403132943297 1 1 0
11776 1 11.609593013728068 14.54419338776147 -10.735236753767875 0 0 0
14625 1 8.93422696078179 13.494105691384512 -9.835715388086612 1 1 0
12577 1 11.268013958952954 13.790127256665563 -8.293583619858017 0 1 0
10437 1 9.482403244951163 16.07369312889136 -9.666510589659762 0 1 0
10608 1 14.60189362930433 14.530047158659526 -11.049698826587868 0 1 0
15711 1 13.330586914642312 13.264239542166079 -6.741958870925863 1 0 0
12184 1 15.674456346696243 13.305174762064842 -8.494875765145371 0 1 0
14294 1 13.93726145769654 15.451408025550604 -8.34093778018791 1 1 0
8949 1 15.733693642305685 15.65735595611081 -6.478656328534987 0 0 0
14227 1 18.52550907963469 13.099546196160206 -8.187291432071943 0 1 0
12675 1 17.093531120568738 15.477103337291567 -9.461425337846615 0 1 0
11189 1 18.285869996965893 16.42732820813222 -7.074555367461799 0 0 0
8928 1 23.397627143923764 12.790974305328815 -7.3548707821349355 0 0 0
13370 1 21.23136648818429 14.12346134779255 -8.385393655704291 0 0 0
10346 1 23.610429903189683 13.811674707327162 -9.936596699837098 0 1 0
16473 1 22.553620859816352 15.60734203170085 -6.01074317510686 1 1 0
15572 1 2.0220826325318355 16.92864171273209 -8.751317340926683 1 0 0
10574 1 2.088252943864052 19.657217984948932 -8.946587358210218 0 1 0
13903 1 0.9116266537510661 18.44854655169609 -6.832588981668431 1 0 0
10630 1 3.400709916480251 20.510381857619567 -6.770579173389882 0 1 0
16791 1 5.646912518778237 19.44943113151889 -10.622234639367539 1 0 0
16157 1 4.2560444690112975 18.211711712449237 -8.222581553140916 1 0 0
12060 1 6.615206109689829 17.486640270192662 -9.132069123214244 0 0 0
12005 1 6.135892905122994 20.27498345176805 -7.670749635612665 0 0 0
15315 1 8.370871437107311 19.72496685066864 -9.101888827721313 1 0 0
9393 1 10.90710738081051 18.643316382451577 -10.164447632947004 0 0 0
9330 1 8.843492595080278 17.69375127709788 -7.409880401100057 0 0 0
11508 1 11.466216291885292 16.70014705494601 -7.954196427220127 0 0 0
15551 1 10.954280635392376 19.602220753691924 -7.628496551641216 1 0 0
11635 1 15.127009757175577 19.435845262754786 -10.685442637912459 0 0 0
10274 1 13.105762002407525 16.796673630012616 -10.450435102823159 0 1 0
16899 1 15.6641751112004 20.09534968696291 -6.214038577519237 1 0 0
17332 1 13.39822072722045 18.60168121529112 -8.66075976194227 1 1 0
15883 1 15.960687964353259 17.82240746916829 -8.091789399628663 1 0 0
13318 1 19.866788818951946 16.748188038988033 -9.228803642775281 0 0 0
10254 1 20.310946795336616 19.731443355742364 -8.540845824417119 0 0 0
9200 1 17.672843283603946 20.44202680812436 -9.668490256031252 0 0 0
11157 1 18.172467173194374 19.41578985014596 -6.9645708127021955 0 0 0
13672 1 20.571123540966465 20.938916226968097 -5.953407960577986 0 0 0
16172 1 22.80237172991729 16.492184021577653 -8.565046894289095 0 0 0
15438 1 23.159405074857954 19.09892659251936 -8.526941978656962 0 0 0
14402 1 24.781299387604523 20.637425529704732 -6.7051335214913115 0 1 0
9242 1 0.8492484710376371 21.08332458552802 -6.2564093025907 0 0 0
17055 1 2.373043337707155 22.86337575604974 -7.788686030810459 1 1 0
11122 1 4.17704030197434 24.492994170132622 -9.134938223723417 0 0 0
16400 1 1.2611915415688701 24.77340021958145 -9.572613339672248 1 0 0
11043 1 4.4337321225693325 21.670125051604664 -9.474988385820492 0 0 0
19743 2 15.00721124955944 0.015438408712071805 -1.6659718041094298 0 0 0
12001 1 7.215316816792609 22.026106378917852 -9.67562655800774 0 0 0
15468 1 4.8653917545100205 22.672903291682157 -6.918292397523535 1 0 0
10114 1 7.3944712592945185 22.76223028052966 -6.528713048885471 0 1 0
11403 1 0.026458690907991533 20.27782141298568 -10.271684740145398 0 0 0
15347 1 9.81296617483788 21.46959299940188 -10.711505451642925 1 0 0
9658 1 9.575500374993663 22.146251847713778 -7.772042325182762 -1 0 0
11261 1 11.704055211586475 22.744086757444272 -9.083141112338403 0 0 0
12938 1 10.629792988006843 24.360817354793795 -6.723544342206565 0 1 0
10883 1 8.236944140003173 24.485269813261006 -8.840644870533456 0 1 0
13211 1 13.304144538035667 21.02293628740693 -7.6468003591070675 0 0 0
15879 1 13.250998597491 23.950564887607126 -7.156680948868341 1 0 0
10702 1 14.568734259047158 22.517161186729002 -9.639748888677286 0 1 0
13728 1 16.655610382110133 22.068062740994705 -7.487884981360073 1 0 0
15540 1 17.2262990828472 23.093436453856242 -9.859754015858213 1 0 0
13231 1 19.842815935777526 22.59670869544143 -8.190003758243705 1 0 0
9738 1 19.38765251560533 24.583115815912745 -10.027483379242877 0 0 0
9531 1 22.07470180463928 23.543221575083987 -9.754602152178098 0 0 0
15447 1 21.744476384548673 23.528493563646194 -6.230445413369081 1 0 0
11432 1 22.562427081747998 21.529343228892966 -7.808783976833729 0 0 0
15755 1 24.443155250753875 23.33328140493958 -7.223938414593188 1 0 0
14209 1 24.934426930868774 21.11838602666423 -9.37375261689921 0 0 0
19207 2 0.5516987517937069 2.38101019842558 -3.0630294923940338 0 1 0
12894 1 3.7539638826068247 3.3258155608016695 -1.8312581960742664 0 1 0
12828 1 2.0886539910807422 2.0245388397293413 -4.054259203661369 0 1 0
10292 1 0.8493648030034054 2.9645727355750155 -1.4345090544918973 0 1 0
11276 1 7.962867202279611 0.3473023581068596 -5.690726650581231 0 0 0
15418 1 5.121116050498988 1.9935700768707791 -4.402178350969811 1 0 0
23215 2 5.151411837702243 2.4621155210250425 -2.6867151142664736 0 1 0
10464 1 6.697328993959528 3.5279380152725457 -2.684658883882305 0 1 0
17162 1 7.7568924437028715 3.036143160347093 -5.085216000655211 1 1 0
17413 1 8.19439562114285 1.1889144262566174 -3.1827120624630973 1 1 0
10661 1 10.83457554167476 4.433706380810955 -5.421564616843464 0 1 0
11640 1 10.246386191965287 1.3566726785052208 -5.176732234337184 0 0 0
20708 2 11.344791748944477 3.3148101591707277 -2.3005041579772034 0 1 0
9492 1 9.711609784216689 3.3922438809287185 -3.2460114336039405 0 1 0
9932 1 12.359148033505502 2.738212366475223 -3.6948327033024415 0 1 0
10588 1 24.81146802535409 19.506048656200143 -4.231275132989029 0 1 0
10161 1 14.250952156327017 3.5905128606170567 -5.427828620208505 0 1 0
9949 1 14.263075159361016 0.7243810479308435 -5.087569409279734 0 1 0
10151 1 16.396648059125912 1.7704530572300754 -3.985820797503742 0 1 0
9944 1 15.134178958603089 4.140435807606354 -2.884931573088951 0 1 0
10411 1 13.330350391366643 0.7659997854157273 -1.960173754025758 0 1 0
19675 2 16.613436171856254 3.1302577400563205 -2.9185853557305057 0 0 0
12474 1 18.833754580167223 0.594109898824542 -2.2151686628462106 0 1 0
17019 1 20.024420128341575 3.3195417411714137 -2.602817461231976 1 1 0
11864 1 18.869142428300155 1.6921141321648396 -5.029751402241258 0 0 0
19759 2 18.33362527123042 3.7271306987641766 -2.1415770998080337 0 1 0
11235 1 21.765556441653757 1.83894800592868 -5.192029936295327 0 0 0
12160 1 22.73435570118267 1.7291397169534986 -2.5132736942779528 0 1 0
12836 1 24.528651751440286 1.3248154449180123 -4.479168187309149 0 1 0
17720 2 24.092316705251573 21.0289346262466 -1.0171676863556764 0 1 0
12896 1 1.0383782232816696 5.396491881393326 -6.147138526498184 0 1 0
10903 1 2.2716123136974353 4.880122146947236 -3.8131827660009106 0 1 0
10607 1 2.3025369068521577 7.394595488329449 -4.417613647588516 0 1 0
10462 1 2.3183955681151227 6.484293667299256 -1.550451834851304 0 1 0
15878 1 5.607361846279373 4.895760055078331 -4.877927515930923 1 0 0
10847 1 4.949679478522916 5.567277114054936 -2.0666918909005645 0 1 0
17185 1 5.601152025438785 7.726373035838032 -3.522459167286637 1 1 0
20424 2 6.593264048389098 4.944981752923015 -1.5297176267749293 0 1 0
10398 1 8.303108370740906 5.511129928856642 -4.517117179811601 0 1 0
10697 1 8.465568819890798 7.274662787635144 -2.3160448418717814 0 1 0
12734 1 10.845859470277958 6.816691799980974 -3.6658574195628177 0 1 0
15485 1 9.030887803295606 7.939804498507312 -5.4039400785409315 1 1 0
10873 1 10.941044478003485 4.864474784911101 -1.4840754349425467 0 1 0
16510 1 15.630695375857417 5.9263014196340835 -5.166571495949683 1 1 0
14457 1 13.21997315859425 5.591734070614368 -3.6792906761327018 0 1 0
9261 1 13.59582094039624 8.067557005025531 -5.3015793788456875 0 0 0
17265 1 13.180883528002365 8.273378422877954 -2.497441481523085 1 1 0
10494 1 16.770721386994985 6.5481523128382 -2.664879565864467 0 1 0
8771 1 17.80847282206405 4.191230708414467 -3.7472568291508317 0 0 0
10902 1 18.328307131450778 6.368191749626991 -5.5109853732230425 0 1 0
10134 1 20.117403432419156 4.342079575920343 -5.172932241783865 0 1 0
19692 2 17.59555141369322 8.001466222103101 -1.8196966922877706 0 1 0
18839 2 19.53220862166295 7.540281489147385 -1.8257985894516517 0 1 0
11137 1 20.085901947755765 6.351570206811005 -3.1898552138581655 0 0 0
15043 1 22.64919686366099 4.185706847840109 -3.9392799102884184 0 1 0
14382 1 21.83368110717991 6.468841480489217 -5.540290970393174 0 1 0
20179 2 23.77608019645483 23.06946735720621 2.2903541437239365 0 0 0
12625 1 23.0270448221645 6.9611465320841885 -2.9412676122337467 0 1 0
23123 2 24.15171225928858 21.76831594704599 0.821137943634645 0 0 0
12677 1 22.096405917131044 4.269657032869909 -1.2198391947719656 0 1 0
18755 2 0.6410728392032191 9.599160128424197 -2.491087949428772 0 1 0
13354 1 1.4893496517813802 10.05235604874177 -4.119605421133823 0 0 0
15614 1 1.7560764120031007 10.90216473914309 -1.691851983851931 1 0 0
10967 1 3.6112557714038798 9.492137538656618 -5.925983244805037 0 1 0
11545 1 3.3260822214714465 12.286858877759649 -5.258623047275046 0 0 0
14019 1 4.364884156311938 10.20473732676545 -3.6753789412969184 1 1 0
17431 1 5.995363843093469 11.575931732300276 -5.336331537418504 1 1 0
16657 1 7.389506665597334 9.658167914695843 -3.889365262809786 1 1 0
14660 1 6.417207853151762 11.829772355889089 -2.5682087363080894 0 1 0
8769 1 9.012794438641796 10.460134248785641 -6.0039598770556255 1 0 0
18535 2 8.551452249494195 9.156594404251011 -2.5246832319669603 0 1 0
9957 1 11.433140524917901 9.713512746356656 -4.8374089066744785 0 1 0
9022 1 10.440174438862392 9.248957411619172 -2.240496168182421 0 0 0
10017 1 9.911046132061664 11.836670757792946 -3.154349696611805 0 1 0
11758 1 12.430971319285971 11.20028275442705 -1.8491903120418705 0 0 0
10691 1 12.49870901920968 12.347886258562133 -4.251625984165502 0 1 0
15392 1 16.12996817440759 8.549463373839966 -4.647824830920039 1 0 0
11906 1 14.284963100971062 10.380489449537178 -3.699125328843205 0 0 0
10986 1 16.285094146885683 9.145587050681321 -2.139181922248798 0 1 0
12728 1 14.900269294358248 11.904318070244909 -1.5793156246882374 0 1 0
11206 1 18.420295592116695 9.196069453115305 -5.7564019056491516 0 0 0
8964 1 19.248366992963884 11.774392759415614 -5.829982253260088 0 0 0
9098 1 17.004855960380098 11.244114114234481 -4.1308657586615825 0 0 0
13066 1 18.717080178369937 8.751526753708156 -3.0684786342254373 0 1 0
19216 2 19.7240150582547 12.30513044342548 -2.344922368408913 0 0 0
18472 2 17.824731515943732 12.372421171972121 -2.9168786057970957 0 1 0
13090 1 18.284908116065267 11.524257561105825 -1.3872692840248715 0 1 0
13021 1 20.88375599334905 10.874071603053103 -2.479087748670884 0 1 0
12973 1 24.37812879983603 10.921082944595826 -5.533365985598026 0 1 0
16606 1 20.74170351434949 8.890514643970036 -4.907675242689606 1 1 0
12347 1 22.967594746915488 9.70439947243375 -3.5798583943497353 0 1 0
11110 1 21.981448531133196 11.942309718481246 -4.819810360581272 0 0 0
17270 1 0.4101633939066835 13.831404443050461 -5.905241565639289 1 1 0
12864 1 1.2996104535234687 12.813366212281473 -3.506197348888061 0 1 0
15643 1 2.706920674793285 14.832232144828597 -4.408184550258925 1 0 0
9306 1 3.9755740970534985 12.958568168754285 -2.2409573063094292 0 0 0
17035 1 0.8144415618697683 16.540465381817434 -5.112080256687103 1 1 0
9103 1 5.466155297836064 14.008240590486167 -4.2899658599783494 0 0 0
11619 1 4.471693946205232 15.952252877448046 -2.6616440026043566 0 0 0
9777 1 7.0023799628713475 16.20712562175289 -4.074626108944465 0 1 0
10814 1 8.10519234462154 13.542586366550825 -3.9686699504702094 0 1 0
10961 1 12.026901738023227 15.33048321131291 -5.822176542241427 0 1 0
17385 1 10.259789579515985 12.933898636446461 -5.958573822893321 1 1 0
9682 1 9.241244835966233 15.534954892548352 -5.765424923660743 0 0 0
11239 1 10.657184139927502 14.439720490177203 -3.440938856564289 0 0 0
15610 1 12.276713204838975 16.83673015001708 -3.7222572472816706 1 0 0
13489 1 8.525351095872143 14.955059594755184 -1.3819897685258227 0 0 0
11056 1 13.293297530370728 14.276809795662512 -2.3168278314131867 0 0 0
12525 1 15.04253799901681 13.168838714556628 -4.441859067852211 0 1 0
10690 1 14.937212577941148 15.91771402274298 -3.872282233718017 0 1 0
15452 1 20.197522271428003 14.466153460648464 -5.944820982513833 1 0 0
15984 1 17.44000150432029 13.76100090669886 -5.822916916191179 1 0 0
9615 1 17.981765951491 15.939946697833332 -4.320101711899262 0 0 0
9269 1 19.15326448887129 13.383657630167395 -3.639781892070011 0 0 0
18471 2 18.571815896025882 13.900685513920738 -1.9515009165424806 0 1 0
14720 1 20.430846325753727 16.089537089068827 -2.8856404865556367 0 1 0
19215 2 20.41752164921517 14.133613661922103 -2.6695649164217006 0 0 0
11011 1 17.880951133353015 15.521572770238567 -1.5956759941820284 0 1 0
13392 1 24.51358567243318 13.849084855400413 -5.157789810184869 0 0 0
10558 1 22.09054396184442 14.249285457515867 -3.5550346454141084 0 1 0
11019 1 24.83147042286958 14.251319306036638 -2.603355504934414 0 1 0
17384 1 3.2623878271467928 18.434837027848474 -5.2673685488569335 1 1 0
16496 1 2.1554240298125396 17.137434649879836 -2.7989790877250695 1 0 0
10703 1 0.7685090997674898 19.205718535433984 -4.119147104695597 0 1 0
9111 1 1.9489433921678154 20.283215031671865 -1.5068911834064733 0 0 0
9654 1 6.376360976975949 18.389247405069653 -5.735404404910879 0 0 0
17202 1 5.281848393816387 18.525136567076522 -3.187491837231091 1 1 0
9001 1 4.63095417048094 20.694342381559803 -1.606508649595907 0 0 0
13097 1 10.668626435267921 18.01833943729836 -5.353117493056534 0 1 0
10676 1 8.56186977222153 20.043445255748175 -6.088856998292784 0 1 0
11242 1 8.100169802342414 19.467217092709557 -3.3689919942333653 0 0 0
17073 1 9.40171347161207 16.940335906266977 -3.182828353851931 1 1 0
9589 1 11.488931179850336 20.58016655240314 -5.193340244057877 0 0 0
10271 1 11.327859310700378 19.214803080686906 -2.4477791135841582 0 1 0
11632 1 13.905242955484923 17.466775298503105 -6.096659179153678 0 0 0
14958 1 13.954982029548768 18.915923840895612 -3.8070091447674463 1 1 0
9131 1 16.08492748627361 20.397429272193232 -2.844142913214115 0 0 0
13755 1 16.323231177004487 17.729985346135756 -2.139196046445603 1 0 0
11024 1 13.618424627475903 17.496502347791644 -1.3945541686480674 0 1 0
13161 1 16.772097413584458 18.124595311325567 -4.878217054812114 0 0 0
9758 1 18.825863383992388 18.318808861632508 -2.979034134980629 0 0 0
16218 1 19.962740435376297 20.721916922129882 -2.21420601430845 1 0 0
10671 1 20.095557339883797 17.577445141625336 -5.496557625464242 0 1 0
9377 1 18.29252593588171 20.93057212399212 -4.543827466470501 0 0 0
8944 1 22.85943730164538 18.415425313649852 -6.092001256333003 0 0 0
10794 1 22.013462083015437 19.708602250250266 -3.9338716803615132 0 1 0
13777 1 22.86027971695659 17.194556086076513 -3.5424812908144054 1 0 0