LAMMPS (29 Sep 2021)
  using 1 OpenMP thread(s) per MPI task
Reading restart file ...
  restart file = 29 Sep 2021, LAMMPS = 29 Sep 2021
  restoring atom style atomic from restart
  orthogonal box = (-0.36199180 -0.33996486 0.0000000) to (101.43466 101.41263 591.85300)
  3 by 2 by 16 MPI processor grid
  pair style hybrid/overlay stores no restart info
  435844 atoms
  read_restart CPU = 0.183 seconds
Resetting global fix info from restart file:
  fix style: npt, fix ID: 2

CITE-CITE-CITE-CITE-CITE-CITE-CITE-CITE-CITE-CITE-CITE-CITE-CITE

Your simulation uses code contributions which should be cited:
- @article{cjiang2012
The log file lists these citations in BibTeX format.

CITE-CITE-CITE-CITE-CITE-CITE-CITE-CITE-CITE-CITE-CITE-CITE-CITE

All restart file global fix info was re-assigned
Unused restart file peratom fix info:
  fix style: STORE, fix ID: spatialbins_COMPUTE_STORE
Neighbor list info ...
  update every 1 steps, delay 10 steps, check yes
  max neighbors/atom: 2000, page size: 100000
  master list distance cutoff = 8.28721
  ghost atom cutoff = 8.28721
  binsize = 4.143605, bins = 25 25 143
  3 neighbor lists, perpetual/occasional/extra = 3 0 0
  (1) pair eam/alloy, perpetual, skip from (3)
      attributes: half, newton on
      pair build: skip
      stencil: none
      bin: none
  (2) pair edip/multi, perpetual
      attributes: full, newton on
      pair build: full/bin/atomonly
      stencil: full/bin/3d
      bin: standard
  (3) neighbor class addition, perpetual, half/full from (2)
      attributes: half, newton on
      pair build: halffull/newton
      stencil: none
      bin: none
Setting up Verlet run ...
  Unit style    : metal
  Current step  : 11000047
  Time step     : 0.0001
Per MPI rank memory allocation (min/avg/max) = 5.122 | 11.65 | 17.25 Mbytes
Step Time Temp PotEng E_pair TotEng Press Volume Lx Ly Lz CPULeft 
11000047            0    300.29915     -1865763     -1865763     -1848845   -242.25479    6130457.1    101.79665     101.7526      591.853            0 
11010000       0.9953     299.9366   -1865802.5   -1865802.5     -1848905   -68.494938    6129610.6    101.79622    101.73898      591.853    31020.313 
11020000       1.9953    300.17412     -1865796     -1865796   -1848885.1    -259.4719    6129956.1    101.79322    101.74772      591.853      30717.3 
11030000       2.9953    299.96779   -1865794.9   -1865794.9   -1848895.5    3.5666923    6129785.9    101.80624    101.73188      591.853    30412.081 
11040000       3.9953    300.24153   -1865783.3   -1865783.3   -1848868.6    -153.0651    6130560.8    101.80617     101.7448      591.853    30107.646 
11050000       4.9953    300.01251     -1865812     -1865812   -1848910.2    39.547965      6129697    101.79793    101.73871      591.853    29796.551 
11060000       5.9953    299.82348   -1865809.8   -1865809.8   -1848918.6    213.87613    6129704.5    101.79567    101.74109      591.853    29492.503 
11070000       6.9953    300.11264   -1865780.8   -1865780.8   -1848873.3   -190.45432    6130277.2    101.80589    101.74038      591.853    29183.471 
11080000       7.9953    300.01696   -1865778.5   -1865778.5   -1848876.4    347.08598    6130328.5    101.80479    101.74233      591.853    28873.867 
11090000       8.9953    300.14631   -1865780.3   -1865780.3     -1848871   -113.76229    6130278.6    101.80799     101.7383      591.853    28559.911 
11100000       9.9953    300.17758   -1865790.7   -1865790.7   -1848879.6    -2.758489    6130437.2    101.81003     101.7389      591.853    28249.129 
11110000      10.9953    300.10799   -1865827.6   -1865827.6   -1848920.4   -115.19253      6130370    101.80808    101.73973      591.853    27938.364 
11120000      11.9953    299.70524     -1865815     -1865815   -1848930.5    107.98736    6130084.2    101.80388    101.73919      591.853    27625.731 
11130000      12.9953    299.80598   -1865793.1   -1865793.1   -1848902.9   -22.596698    6129992.7    101.80692    101.73463      591.853    27312.954 
11140000      13.9953    299.91335   -1865797.5   -1865797.5   -1848901.2    336.69951    6130386.5    101.80812    101.73996      591.853    26998.623 
11150000      14.9953    299.91082   -1865809.2   -1865809.2   -1848913.1   -69.893865    6130607.1    101.80269    101.74905      591.853    26682.808 
11160000      15.9953    299.93762   -1865771.9   -1865771.9   -1848874.3    26.720706    6130338.2    101.80568     101.7416      591.853    26370.017 
11170000      16.9953    299.94131   -1865808.6   -1865808.6   -1848910.8    109.63993    6131078.5    101.80833    101.75124      591.853     26054.84 
11180000      17.9953    300.10252   -1865789.9   -1865789.9     -1848883    359.64796      6130590    101.80907     101.7424      591.853    25739.442 
11190000      18.9953    300.12864   -1865804.9   -1865804.9   -1848896.5    496.60288    6129998.1    101.80597    101.73567      591.853    25426.405 
11200000      19.9953    300.03902   -1865784.6   -1865784.6   -1848881.3   -272.64353    6129944.6    101.79719    101.74356      591.853    25112.965 
11210000      20.9953     299.9508   -1865804.1   -1865804.1   -1848905.7   -272.31401    6130656.7    101.80289    101.74968      591.853    24799.871 
11220000      21.9953    299.95199   -1865787.7   -1865787.7   -1848889.3    47.597949      6130644    101.80801    101.74435      591.853    24487.138 
11230000      22.9953    300.07695   -1865821.2   -1865821.2   -1848915.7    108.09295    6130062.9    101.79757    101.74514      591.853    24174.375 
11240000      23.9953    299.97403   -1865791.7   -1865791.7     -1848892    64.152534    6130135.8    101.81066    101.73327      591.853    23861.545 
11250000      24.9953    300.35204   -1865782.5   -1865782.5   -1848861.5    92.721986    6129654.2    101.80025    101.73568      591.853    23548.694 
11260000      25.9953    300.00585   -1865796.5   -1865796.5     -1848895   -114.23114    6130033.1    101.80387    101.73834      591.853    23236.175 
11270000      26.9953    300.14189   -1865792.6   -1865792.6   -1848883.5   -229.41138    6131004.6    101.81377    101.74458      591.853    22921.623 
11280000      27.9953    299.89755   -1865799.8   -1865799.8   -1848904.4    182.51873    6129689.9     101.8022    101.73432      591.853    22607.536 
11290000      28.9953    299.93202   -1865819.7   -1865819.7   -1848922.3   -298.76433    6129952.1    101.79397     101.7469      591.853    22293.777 
11300000      29.9953    299.82116   -1865801.1   -1865801.1     -1848910    93.329939    6130330.5    101.81315    101.73401      591.853    21980.245 
11310000      30.9953    299.98713   -1865787.6   -1865787.6   -1848887.2   -298.02743    6130184.7    101.81009    101.73464      591.853    21666.246 
11320000      31.9953    300.03829   -1865828.4   -1865828.4   -1848925.1    202.55593    6129504.5    101.79971    101.73373      591.853    21351.681 
11330000      32.9953    299.90079   -1865806.7   -1865806.7   -1848911.2    143.12589    6130340.4     101.8063    101.74102      591.853    21036.919 
11340000      33.9953    300.15123   -1865782.9   -1865782.9   -1848873.3   -235.31923      6130449    101.80473    101.74439      591.853    20722.666 
11350000      34.9953    299.93188   -1865802.4   -1865802.4   -1848905.1    226.36741    6130165.6    101.80296    101.74145      591.853    20408.427 
11360000      35.9953    299.86192     -1865805     -1865805   -1848911.7    123.62852    6130735.1    101.80414    101.74973      591.853    20093.792 
11370000      36.9953    299.92867   -1865823.5   -1865823.5   -1848926.3    482.43415    6129781.7     101.7991    101.73894      591.853    19779.223 
11380000      37.9953    300.05306   -1865787.1   -1865787.1     -1848883   -484.19158    6131117.4    101.80819    101.75202      591.853    19464.309 
11390000      38.9953    300.06776     -1865776     -1865776   -1848871.1    13.316871    6130268.3    101.80263    101.74349      591.853    19150.389 
11400000      39.9953      299.675   -1865781.4   -1865781.4   -1848898.6   -343.60889    6130493.8    101.80873    101.74114      591.853    18835.929 
11410000      40.9953    300.23255   -1865824.2   -1865824.2     -1848910   -100.29277    6129381.3    101.79357    101.73782      591.853    18522.494 
11420000      41.9953    300.36101   -1865780.8   -1865780.8   -1848859.4   -64.363651    6130523.3    101.81179    101.73857      591.853    18209.092 
11430000      42.9953    299.96636   -1865791.3   -1865791.3     -1848892    180.46525    6130390.3    101.80246    101.74569      591.853    17895.684 
11440000      43.9953    299.92428   -1865815.3   -1865815.3   -1848918.5   -121.53959    6130959.4    101.80479     101.7528      591.853    17582.249 
11450000      44.9953    300.15023   -1865799.7   -1865799.7   -1848890.1   -111.82083    6131362.2    101.82152    101.74277      591.853    17268.927 
11460000      45.9953    299.72781   -1865787.7   -1865787.7   -1848901.9   -180.26498    6130693.8    101.81003    101.74315      591.853    16955.039 
11470000      46.9953    300.06511     -1865769     -1865769   -1848864.2   -133.39835    6131282.1    101.81385     101.7491      591.853    16640.764 
11480000      47.9953    299.94859   -1865823.5   -1865823.5   -1848925.2   -125.08245    6129690.4    101.79901    101.73752      591.853    16326.639 
11490000      48.9953    299.79804   -1865776.2   -1865776.2   -1848886.4   -1.2066814    6130154.3    101.80422    101.74001      591.853    16012.929 
11500000      49.9953    300.11793   -1865822.2   -1865822.2   -1848914.4   -319.53468    6130824.2    101.80755     101.7478      591.853    15698.591 
11510000      50.9953    300.26748   -1865798.9   -1865798.9   -1848882.7    65.622548    6130384.7    101.80186    101.74619      591.853    15384.896 
11520000      51.9953    300.18714   -1865830.6   -1865830.6   -1848918.9   -245.01933    6130210.7    101.79998    101.74518      591.853    15070.833 
11530000      52.9953    300.02042   -1865780.6   -1865780.6   -1848878.3    325.44721    6130705.5    101.81267    101.74072      591.853    14756.768 
11540000      53.9953    299.97458   -1865834.2   -1865834.2   -1848934.5    63.664237    6129679.6     101.7933    101.74305      591.853    14442.604 
11550000      54.9953    299.67608   -1865818.3   -1865818.3   -1848935.4   -241.72219    6130098.5    101.79794    101.74536      591.853    14128.554 
11560000      55.9953    300.19294   -1865781.1   -1865781.1   -1848869.1   -47.664678    6129447.8    101.79572    101.73678      591.853    13814.555 
11570000      56.9953    299.71513   -1865805.8   -1865805.8   -1848920.7    232.89416    6129966.7    101.80153    101.73958      591.853     13500.48 
11580000      57.9953    299.90211   -1865792.3   -1865792.3   -1848896.7    276.31914    6129795.8    101.80337    101.73491      591.853    13186.745 
11590000      58.9953    300.05318     -1865800     -1865800   -1848895.9    338.37404    6130292.5    101.80922    101.73731      591.853    12872.731 
11600000      59.9953     299.9243   -1865808.8   -1865808.8   -1848911.9    69.096836    6130055.2    101.80142    101.74116      591.853    12558.849 
11610000      60.9953    299.80998   -1865834.7   -1865834.7   -1848944.3    159.68109    6130881.2    101.81026    101.74604      591.853    12244.909 
11620000      61.9953    300.02269   -1865807.7   -1865807.7   -1848905.3    60.654996    6129868.3    101.80504    101.73444      591.853    11931.165 
11630000      62.9953    300.05733   -1865803.3   -1865803.3   -1848898.9    121.07309    6130447.5    101.80722    101.74187      591.853    11617.229 
11640000      63.9953    299.83733   -1865831.6   -1865831.6   -1848939.6     -183.958    6129996.7    101.79731    101.74429      591.853    11303.302 
11650000      64.9953    300.26869     -1865804     -1865804   -1848887.7   -196.99886    6131046.4    101.81258    101.74646      591.853    10989.317 
11660000      65.9953    299.83463   -1865801.7   -1865801.7   -1848909.8    531.65025    6130655.5    101.81049    101.74206      591.853    10675.619 
11670000      66.9953    299.91321   -1865802.1   -1865802.1   -1848905.9    380.20556    6129878.7    101.79991    101.73974      591.853    10361.674 
11680000      67.9953    299.92789   -1865802.1   -1865802.1     -1848905    158.01611    6130541.8    101.81419    101.73648      591.853    10047.932 
11690000      68.9953    299.77729   -1865799.1   -1865799.1   -1848910.6    54.410367    6130113.2     101.8026    101.74095      591.853    9734.1271 
11700000      69.9953    300.01871   -1865804.9   -1865804.9   -1848902.7    609.60988    6130314.4    101.79239    101.75449      591.853    9420.1232 
11710000      70.9953    300.16585   -1865823.3   -1865823.3   -1848912.8   -11.778655    6130258.7    101.80439    101.74157      591.853    9106.2229 
11720000      71.9953    300.10546     -1865812     -1865812     -1848905    89.204594    6130794.9    101.81666    101.73821      591.853    8792.2248 
11730000      72.9953    300.03476   -1865815.5   -1865815.5   -1848912.4   -96.744751    6130800.6    101.80744    101.74752      591.853    8478.2769 
11740000      73.9953    299.63194   -1865812.6   -1865812.6   -1848932.2    320.38645    6130967.8     101.8145    101.74323      591.853     8164.336 
11750000      74.9953     299.7049   -1865822.3   -1865822.3   -1848937.8   -35.225171    6130666.2    101.80199    101.75073      591.853    7850.1875 
11760000      75.9953     299.6774   -1865806.9   -1865806.9   -1848923.9    -26.41069    6130174.7    101.80494    101.73963      591.853    7536.3159 
11770000      76.9953     300.0817     -1865774     -1865774   -1848868.2   -316.63323      6130934     101.8018    101.75537      591.853    7222.4573 
11780000      77.9953    299.95527   -1865793.1   -1865793.1   -1848894.5    348.96964    6130106.3    101.80878    101.73466      591.853     6908.614 
11790000      78.9953    299.96327   -1865827.8   -1865827.8   -1848928.7    519.85271    6129646.9    101.80669    101.72912      591.853    6594.7364 
11800000      79.9953    300.11703   -1865811.2   -1865811.2   -1848903.4    52.756881    6129817.8    101.80181    101.73683      591.853    6280.8316 
11810000      80.9953    300.07523   -1865806.5   -1865806.5   -1848901.1   -216.34002    6130705.1    101.80301    101.75036      591.853     5966.858 
11820000      81.9953     299.9929   -1865789.5   -1865789.5   -1848888.8    280.54666    6130541.4    101.80375    101.74691      591.853    5652.8871 
11830000      82.9953    300.02404   -1865783.2   -1865783.2   -1848880.8   -2.6464971    6130525.4    101.80269     101.7477      591.853    5338.8361 
11840000      83.9953    299.93723   -1865798.7   -1865798.7   -1848901.1    171.23107    6130718.8    101.80863    101.74497      591.853    5024.9031 
11850000      84.9953    299.80422   -1865838.6   -1865838.6   -1848948.5    63.057035    6129490.5    101.79862    101.73459      591.853    4710.9361 
11860000      85.9953    300.01872   -1865813.9   -1865813.9   -1848911.7   -46.017968    6130224.6    101.79693    101.74846      591.853    4396.9994 
11870000      86.9953    300.25197   -1865809.1   -1865809.1   -1848893.7    86.052489    6130085.8    101.80011    101.74298      591.853    4083.0059 
11880000      87.9953    299.96508   -1865823.5   -1865823.5   -1848924.3    80.922757    6130524.7    101.80862    101.74176      591.853    3769.0154 
11890000      88.9953    299.75529   -1865828.7   -1865828.7   -1848941.4    70.302215    6130487.4    101.80967    101.74009      591.853    3455.0396 
11900000      89.9953     299.9671   -1865821.7   -1865821.7   -1848922.4   -164.07857    6130777.1    101.80925    101.74532      591.853    3141.0624 
11910000      90.9953    299.96177     -1865802     -1865802     -1848903    218.11837    6130707.4    101.80813    101.74528      591.853    2827.1297 
11920000      91.9953    299.90234   -1865831.6   -1865831.6     -1848936   -151.35472    6130402.7    101.80073    101.74762      591.853    2513.1976 
11930000      92.9953    299.66251   -1865800.5   -1865800.5   -1848918.4    105.65742      6130678    101.81043    101.74249      591.853    2199.2289 
11940000      93.9953    300.13961   -1865805.7   -1865805.7   -1848896.7   -213.04957    6129777.4    101.80514    101.73284      591.853    1885.2934 
11950000      94.9953    300.06558   -1865816.5   -1865816.5   -1848911.7    236.99651    6130755.8    101.81083    101.74339      591.853    1571.3456 
11960000      95.9953    299.86376   -1865816.3   -1865816.3   -1848922.9    274.24848      6129974    101.80167    101.73957      591.853    1257.3782 
11970000      96.9953    300.19338   -1865806.9   -1865806.9   -1848894.9    285.07804    6129744.9    101.80234    101.73509      591.853    943.39521 
11980000      97.9953     300.0489   -1865795.6   -1865795.6   -1848891.7   -363.18672    6130471.8    101.80968    101.73982      591.853    629.42055 
11990000      98.9953    300.09425   -1865777.9   -1865777.9   -1848871.5    -248.1038    6130633.5    101.80861    101.74357      591.853      315.447 
12000000      99.9953    299.91659   -1865777.9   -1865777.9   -1848881.5    64.628052    6130516.6    101.80635     101.7439      591.853    1.4756604 
12000047          100    299.94855   -1865776.1   -1865776.1   -1848877.9   -75.852225    6131217.5    101.81122    101.75065      591.853            0 
Loop time of 31397 on 96 procs for 1000000 steps with 435844 atoms

Performance: 0.275 ns/day, 87.214 hours/ns, 31.850 timesteps/s
100.0% CPU use with 96 MPI tasks x 1 OpenMP threads

MPI task timing breakdown:
Section |  min time  |  avg time  |  max time  |%varavg| %total
---------------------------------------------------------------
Pair    | 4819.5     | 19349      | 30381      |4734.1 | 61.63
Neigh   | 0.077156   | 24.549     | 35.626     | 212.4 |  0.08
Comm    | 414.32     | 7129.5     | 25950      |9602.8 | 22.71
Output  | 1.9196     | 1.9209     | 1.9241     |   0.1 |  0.01
Modify  | 484.47     | 4815.5     | 9009.9     |4740.6 | 15.34
Other   |            | 76.39      |            |       |  0.24

Nlocal:        4540.04 ave        5968 max          11 min
Histogram: 12 0 0 0 0 0 1 25 22 36
Nghost:        8500.67 ave       10752 max        2731 min
Histogram: 12 0 0 0 0 12 0 16 33 23
Neighs:         0.00000 ave           0 max           0 min
Histogram: 96 0 0 0 0 0 0 0 0 0
FullNghs:      866179.0 ave 1.28016e+06 max         443 min
Histogram: 12 0 0 0 0 20 16 11 13 24

Total # of neighbors = 83153168
Ave neighs/atom = 190.78654
Neighbor list builds = 1046
Dangerous builds = 0
System init for write_restart ...
System init for write_data ...
Total wall time: 8:43:18
