LAMMPS (29 Sep 2021)
  using 1 OpenMP thread(s) per MPI task
Reading restart file ...
  restart file = 29 Sep 2021, LAMMPS = 29 Sep 2021
  restoring atom style atomic from restart
  orthogonal box = (-0.30973750 -0.13230552 0.0000000) to (101.60880 101.43137 611.33702)
  3 by 2 by 16 MPI processor grid
  pair style hybrid/overlay stores no restart info
  458562 atoms
  read_restart CPU = 0.189 seconds
Resetting global fix info from restart file:
  fix style: npt, fix ID: 2

CITE-CITE-CITE-CITE-CITE-CITE-CITE-CITE-CITE-CITE-CITE-CITE-CITE

Your simulation uses code contributions which should be cited:
- @article{cjiang2012
The log file lists these citations in BibTeX format.

CITE-CITE-CITE-CITE-CITE-CITE-CITE-CITE-CITE-CITE-CITE-CITE-CITE

All restart file global fix info was re-assigned
Unused restart file peratom fix info:
  fix style: STORE, fix ID: spatialbins_COMPUTE_STORE
Neighbor list info ...
  update every 1 steps, delay 10 steps, check yes
  max neighbors/atom: 2000, page size: 100000
  master list distance cutoff = 8.28721
  ghost atom cutoff = 8.28721
  binsize = 4.143605, bins = 25 25 148
  3 neighbor lists, perpetual/occasional/extra = 3 0 0
  (1) pair eam/alloy, perpetual, skip from (3)
      attributes: half, newton on
      pair build: skip
      stencil: none
      bin: none
  (2) pair edip/multi, perpetual
      attributes: full, newton on
      pair build: full/bin/atomonly
      stencil: full/bin/3d
      bin: standard
  (3) neighbor class addition, perpetual, half/full from (2)
      attributes: half, newton on
      pair build: halffull/newton
      stencil: none
      bin: none
Setting up Verlet run ...
  Unit style    : metal
  Current step  : 11000502
  Time step     : 0.00025
Per MPI rank memory allocation (min/avg/max) = 7.577 | 11.13 | 17.26 Mbytes
Step Time Temp PotEng E_pair TotEng Press Volume Lx Ly Lz CPULeft 
11000502            0    300.20737     -2005299     -2005299   -1987504.6      142.133      6328085    101.91854    101.56368    611.33702            0 
11010000       2.3745    299.96926   -2005286.3   -2005286.3     -1987506   -160.34374    6328755.5    101.92742    101.56559    611.33702     35174.82 
11020000       4.8745    299.57881   -2005277.7   -2005277.7   -1987520.5    127.44101    6328294.4    101.92641     101.5592    611.33702    34866.981 
11030000       7.3745    299.52586   -2005296.7   -2005296.7   -1987542.7   -182.94139    6329375.9    101.93765    101.56535    611.33702    34507.881 
11040000       9.8745    300.08276   -2005315.4   -2005315.4   -1987528.4   -140.02834    6328573.7    101.91961    101.57046    611.33702    34156.724 
11050000      12.3745    300.32246   -2005305.7   -2005305.7   -1987504.5    64.016312    6328928.2    101.92946    101.56632    611.33702    33800.628 
11060000      14.8745    299.77139   -2005292.6   -2005292.6   -1987524.1    47.630864    6328355.3    101.92619    101.56039    611.33702    33445.133 
11070000      17.3745    300.40233   -2005301.1   -2005301.1   -1987495.1    27.216432    6329112.1    101.92581    101.57291    611.33702    33092.313 
11080000      19.8745    299.97415   -2005293.3   -2005293.3   -1987512.7    73.864826    6329264.8    101.93662    101.56459    611.33702    32733.374 
11090000      22.3745    299.85624   -2005281.2   -2005281.2   -1987507.6    82.792709    6328211.8    101.93252    101.55179    611.33702     32376.99 
11100000      24.8745    299.88583   -2005292.1   -2005292.1   -1987516.8   -55.673769    6329391.4    101.93253    101.57071    611.33702    32023.132 
11110000      27.3745    300.11516   -2005295.8   -2005295.8   -1987506.9    99.277841    6328949.2    101.92792     101.5682    611.33702    31667.831 
11120000      29.8745    299.82683     -2005305     -2005305   -1987533.1   -181.14896    6328977.2    101.93512    101.56148    611.33702    31311.625 
11130000      32.3745    300.06487   -2005311.3   -2005311.3   -1987525.4   -157.70752    6328322.9     101.9241    101.56196    611.33702    30955.583 
11140000      34.8745    299.75366   -2005296.2   -2005296.2   -1987528.7   -39.949835    6327846.7    101.92019    101.55821    611.33702    30600.885 
11150000      37.3745    300.23515   -2005299.5   -2005299.5   -1987503.5    187.24475    6328325.2    101.93043    101.55569    611.33702    30245.748 
11160000      39.8745    299.71657   -2005282.6   -2005282.6   -1987517.3   -90.246836      6328793    101.93193     101.5617    611.33702    29891.083 
11170000      42.3745    300.40725     -2005329     -2005329   -1987522.7    48.988079    6328990.1    101.92736    101.56942    611.33702    29535.345 
11180000      44.8745    299.52765   -2005307.7   -2005307.7   -1987553.6    123.17508    6329038.2    101.93138    101.56618    611.33702    29179.039 
11190000      47.3745    300.28572   -2005329.1   -2005329.1     -1987530   -126.51958    6329388.4    101.93533    101.56787    611.33702    28823.977 
11200000      49.8745    300.11575   -2005305.3   -2005305.3   -1987516.3   -64.129732    6328981.4    101.92001     101.5766    611.33702    28469.865 
11210000      52.3745    300.34585   -2005308.8   -2005308.8   -1987506.2    191.41599    6328968.4    101.92384    101.57257    611.33702    28115.276 
11220000      54.8745    299.72253   -2005306.7   -2005306.7     -1987541   -43.741237    6329962.3    101.93177    101.58062    611.33702    27761.128 
11230000      57.3745    300.05421   -2005306.3   -2005306.3     -1987521   -245.49953    6329592.9    101.93634    101.57014    611.33702    27406.608 
11240000      59.8745    299.58009   -2005305.8   -2005305.8   -1987548.5   -170.29614    6328776.1    101.92663    101.56671    611.33702     27053.59 
11250000      62.3745    299.94399   -2005324.5   -2005324.5   -1987545.7    269.37831      6327844    101.92078    101.55758    611.33702    26700.246 
11260000      64.8745    299.85013   -2005291.2   -2005291.2     -1987518   -188.57697    6328614.8    101.93097     101.5598    611.33702    26346.611 
11270000      67.3745    300.33654     -2005327     -2005327   -1987524.9   -112.26917    6328871.6    101.92407    101.57079    611.33702    25992.669 
11280000      69.8745    300.11123     -2005306     -2005306   -1987517.3    -35.44041    6328938.8    101.92427    101.57167    611.33702     25639.29 
11290000      72.3745     300.4661   -2005313.3   -2005313.3   -1987503.5   -94.674426    6329103.5     101.9284     101.5702    611.33702    25285.949 
11300000      74.8745    299.96616   -2005308.8   -2005308.8   -1987528.7   -55.320883    6329522.6    101.93231    101.57302    611.33702    24937.272 
11310000      77.3745     300.4097   -2005309.6   -2005309.6   -1987503.2    40.916794      6328530    101.92196    101.56741    611.33702    24582.225 
11320000      79.8745     299.4954   -2005291.7   -2005291.7   -1987539.6    181.75057    6328710.4    101.92593    101.56635    611.33702    24226.302 
11330000      82.3745    300.41127   -2005328.9   -2005328.9   -1987522.4    86.964984    6329277.9    101.92876    101.57263    611.33702     23871.16 
11340000      84.8745    299.97318   -2005325.2   -2005325.2   -1987544.7    18.514574    6329555.5    101.94069    101.56521    611.33702    23515.194 
11350000      87.3745    300.04386   -2005323.8   -2005323.8   -1987539.1     -187.294    6329220.8    101.93865    101.56187    611.33702    23159.553 
11360000      89.8745    299.96102   -2005305.9   -2005305.9   -1987526.1    41.940788    6328486.1    101.93039     101.5583    611.33702    22803.989 
11370000      92.3745    300.03905   -2005308.5   -2005308.5   -1987524.1    6.5953531    6328590.5    101.92531    101.56504    611.33702    22448.538 
11380000      94.8745    299.78985   -2005321.7   -2005321.7   -1987552.1    50.557335    6328115.9    101.92552    101.55722    611.33702    22093.323 
11390000      97.3745    300.10674   -2005329.8   -2005329.8   -1987541.4   -95.449182    6328252.5    101.92903    101.55591    611.33702    21738.127 
11400000      99.8745    300.25271   -2005330.2   -2005330.2   -1987533.2   -32.245544    6328688.3    101.92684    101.56509    611.33702    21382.168 
11410000     102.3745    299.97432   -2005324.8   -2005324.8   -1987544.2    -103.1925    6329346.8    101.93625    101.56628    611.33702    21026.055 
11420000     104.8745     300.3117   -2005321.9   -2005321.9   -1987521.3   -25.827929    6329190.5     101.9232    101.57678    611.33702    20669.585 
11430000     107.3745    299.93742   -2005320.7   -2005320.7   -1987542.4   -71.294571    6329379.2    101.93548    101.56756    611.33702    20313.523 
11440000     109.8745    299.89955   -2005295.7   -2005295.7   -1987519.6     -6.05322    6329363.8    101.93294    101.56985    611.33702     19957.89 
11450000     112.3745    299.98238   -2005324.3   -2005324.3   -1987543.2   -137.23681    6329788.1    101.93641     101.5732    611.33702    19601.943 
11460000     114.8745    300.32089   -2005317.8   -2005317.8   -1987516.6   -24.415882    6329413.5    101.93692    101.56668    611.33702    19245.986 
11470000     117.3745    299.84965   -2005318.2   -2005318.2     -1987545   -105.19637    6328912.3     101.9296    101.56593    611.33702    18890.207 
11480000     119.8745    299.75321   -2005293.7   -2005293.7   -1987526.3   -150.40395    6330190.9    101.93951    101.57658    611.33702    18534.244 
11490000     122.3745    299.50399   -2005300.9   -2005300.9   -1987548.2    145.04934    6328661.9    101.93513     101.5564    611.33702    18178.057 
11500000     124.8745     299.5776   -2005314.2   -2005314.2   -1987557.2   -171.75829    6328909.5    101.92972    101.56577    611.33702    17822.118 
11510000     127.3745    300.15364   -2005326.8   -2005326.8   -1987535.6    156.04491      6328243    101.92667    101.55811    611.33702      17465.7 
11520000     129.8745    299.80323   -2005308.3   -2005308.3   -1987537.9   -20.378462    6328323.6    101.92211    101.56395    611.33702    17109.825 
11530000     132.3745    300.14779   -2005320.9   -2005320.9     -1987530   -20.426575    6328037.5    101.93054    101.55096    611.33702    16757.667 
11540000     134.8745    300.04978   -2005349.5   -2005349.5   -1987564.4   -75.588787    6328518.9    101.92443    101.56477    611.33702    16403.589 
11550000     137.3745    299.76693   -2005307.8   -2005307.8   -1987539.5   -49.310557    6328674.8    101.92963    101.56209    611.33702     16048.54 
11560000     139.8745    299.64486   -2005323.9   -2005323.9   -1987562.8   -8.0916242    6328815.1    101.93291    101.56108    611.33702    15692.616 
11570000     142.3745    299.74779   -2005322.3   -2005322.3   -1987555.1    93.460718    6328929.4    101.93459    101.56124    611.33702     15336.31 
11580000     144.8745    300.10897     -2005312     -2005312   -1987523.5   -78.818076    6329930.7     101.9304    101.58148    611.33702     14980.12 
11590000     147.3745    300.18022   -2005303.6   -2005303.6   -1987510.8    25.382946    6328833.9    101.92613    101.56813    611.33702    14623.792 
11600000     149.8745    300.21866   -2005352.9   -2005352.9   -1987557.9    76.992461    6328346.3    101.93097    101.55548    611.33702    14267.581 
11610000     152.3745    300.34257   -2005307.8   -2005307.8   -1987505.4    15.112025    6329550.6     101.9339    101.57189    611.33702    13911.224 
11620000     154.8745    299.89088   -2005302.2   -2005302.2   -1987526.6    31.218018    6328163.8    101.92222    101.56128    611.33702    13555.122 
11630000     157.3745    299.79358     -2005306     -2005306   -1987536.2    106.98197    6327823.5    101.91442    101.56359    611.33702    13199.057 
11640000     159.8745    300.53955   -2005330.7   -2005330.7   -1987516.6   -124.22812    6329280.2    101.92145    101.57996    611.33702    12842.999 
11650000     162.3745    300.05053   -2005320.5   -2005320.5   -1987535.5    2.2225184      6328608    101.92856    101.56209    611.33702    12486.865 
11660000     164.8745    299.91636   -2005323.7   -2005323.7   -1987546.5   -49.847502      6328331    101.92026    101.56591    611.33702    12130.642 
11670000     167.3745    299.84061   -2005320.4   -2005320.4   -1987547.8   -14.702418    6329927.2    101.93056    101.58127    611.33702     11774.43 
11680000     169.8745    300.03142   -2005320.2   -2005320.2   -1987536.3    141.45294    6328727.7    101.93263    101.55995    611.33702    11418.073 
11690000     172.3745    299.77828   -2005309.4   -2005309.4   -1987540.5   -150.54382    6329677.4       101.94    101.56785    611.33702    11061.727 
11700000     174.8745    300.09952   -2005316.5   -2005316.5   -1987528.5   -74.190259      6329581    101.92772    101.57853    611.33702    10705.349 
11710000     177.3745    299.93532   -2005303.5   -2005303.5   -1987525.2   -15.528827    6329183.3    101.93155    101.56834    611.33702    10348.981 
11720000     179.8745    299.43728   -2005292.8   -2005292.8   -1987544.1   -22.374493    6328838.8    101.92771    101.56663    611.33702    9992.7164 
11730000     182.3745    299.62079   -2005307.6   -2005307.6     -1987548    162.46577    6328321.2     101.9241    101.56192    611.33702    9636.4666 
11740000     184.8745    299.89542   -2005325.2   -2005325.2   -1987549.4    120.93553    6328647.1    101.92342    101.56784    611.33702    9280.1679 
11750000     187.3745     299.7287   -2005310.4   -2005310.4   -1987544.4    37.815473      6327419    101.91432    101.55719    611.33702     8923.863 
11760000     189.8745    300.33935   -2005345.5   -2005345.5   -1987543.3   -3.2717797      6327850    101.91901    101.55943    611.33702    8567.7665 
11770000     192.3745     299.9315   -2005318.3   -2005318.3   -1987540.3   -79.535339      6328882    101.92688    101.56816    611.33702    8211.5267 
11780000     194.8745    300.15706   -2005310.4   -2005310.4     -1987519    24.608931    6328843.9    101.93129    101.56315    611.33702    7855.3093 
11790000     197.3745    299.58287   -2005293.9   -2005293.9   -1987536.6   -65.459293    6328911.5    101.92427    101.57123    611.33702    7499.0448 
11800000     199.8745    299.86266   -2005309.2   -2005309.2   -1987535.2    181.58081    6329590.8    101.93962    101.56684    611.33702    7142.7629 
11810000     202.3745    299.65953   -2005287.7   -2005287.7   -1987525.8    71.085707    6329323.8    101.93169    101.57045    611.33702    6786.4781 
11820000     204.8745    299.79279   -2005315.6   -2005315.6   -1987545.8   -262.60192    6328797.1    101.92177    101.57189    611.33702    6430.2306 
11830000     207.3745    300.02616   -2005324.4   -2005324.4   -1987540.8    42.415176    6328904.1    101.93078    101.56463    611.33702     6073.908 
11840000     209.8745    300.01011   -2005312.7   -2005312.7     -1987530    0.6900497    6328296.6    101.92297    101.56266    611.33702    5717.6479 
11850000     212.3745    299.82111   -2005323.4   -2005323.4   -1987551.9   -81.227465    6327457.5    101.91485    101.55729    611.33702     5361.401 
11860000     214.8745    299.71831     -2005300     -2005300   -1987534.6   -118.50758    6329062.6    101.93476     101.5632    611.33702    5005.1983 
11870000     217.3745    299.92103   -2005314.6   -2005314.6   -1987537.2   -13.503187      6328267    101.92658    101.55858    611.33702    4648.9748 
11880000     219.8745    299.62151     -2005332     -2005332   -1987572.3     49.15667    6327433.2    101.91971    101.55205    611.33702    4292.7831 
11890000     222.3745    299.96317   -2005321.7   -2005321.7   -1987541.8    -156.2471    6328810.4     101.9275    101.56639    611.33702    3936.5618 
11900000     224.8745    299.47266   -2005293.7   -2005293.7   -1987542.9    223.47041    6328173.6    101.92286     101.5608    611.33702     3580.325 
11910000     227.3745    299.67295   -2005282.7   -2005282.7     -1987520     26.79224    6328931.5    101.93379    101.56207    611.33702    3224.0849 
11920000     229.8745    299.70665   -2005339.6   -2005339.6   -1987574.9    17.054588      6328534    101.92954    101.55992    611.33702    2867.8187 
11930000     232.3745    299.82687   -2005317.3   -2005317.3   -1987545.5    18.484538    6329387.2    101.93074    101.57242    611.33702    2511.5726 
11940000     234.8745    299.77046   -2005326.2   -2005326.2   -1987557.7    13.026872    6329305.6    101.93074    101.57111    611.33702    2155.2845 
11950000     237.3745    300.07523     -2005340     -2005340   -1987553.4    59.137853    6329104.1    101.92866    101.56995    611.33702    1799.0384 
11960000     239.8745    300.01719   -2005332.5   -2005332.5   -1987549.4   -226.77285    6329754.8    101.93252    101.57654    611.33702    1442.8119 
11970000     242.3745    300.05183   -2005350.8   -2005350.8   -1987565.6   -34.516528    6328274.4    101.92565    101.55963    611.33702    1086.5879 
11980000     244.8745    299.53748   -2005317.1   -2005317.1   -1987562.4    106.23753    6328268.3    101.92474    101.56044    611.33702    730.35322 
11990000     247.3745    300.16199   -2005314.4   -2005314.4   -1987522.7   -78.641921    6328529.7    101.92297     101.5664    611.33702    374.11485 
12000000     249.8745    300.05056   -2005335.7   -2005335.7   -1987550.6   -1.6467255    6328341.2    101.92246    101.56388    611.33702    17.882443 
12000502          250    299.93304   -2005325.2   -2005325.2     -1987547   -70.311736    6328461.3    101.92785    101.56044    611.33702            0 
Loop time of 35622.5 on 96 procs for 1000000 steps with 458562 atoms

Performance: 0.606 ns/day, 39.581 hours/ns, 28.072 timesteps/s
100.0% CPU use with 96 MPI tasks x 1 OpenMP threads

MPI task timing breakdown:
Section |  min time  |  avg time  |  max time  |%varavg| %total
---------------------------------------------------------------
Pair    | 12959      | 20313      | 34575      |4231.0 | 57.02
Neigh   | 35.253     | 55.01      | 83.537     | 203.5 |  0.15
Comm    | 398.23     | 5049.5     | 11939      |5954.2 | 14.18
Output  | 1.9578     | 1.9593     | 1.9911     |   0.2 |  0.01
Modify  | 477.78     | 10132      | 15143      |5582.2 | 28.44
Other   |            | 71.55      |            |       |  0.20

Nlocal:        4776.69 ave        6135 max        3812 min
Histogram: 20 4 20 12 4 12 0 11 4 9
Nghost:        8579.59 ave       10818 max        6675 min
Histogram: 14 8 8 14 8 12 10 6 8 8
Neighs:         0.00000 ave           0 max           0 min
Histogram: 96 0 0 0 0 0 0 0 0 0
FullNghs:      812209.0 ave 1.28536e+06 max      441751 min
Histogram: 12 24 0 12 8 4 12 3 9 12

Total # of neighbors = 77972076
Ave neighs/atom = 170.03606
Neighbor list builds = 2411
Dangerous builds = 0
System init for write_restart ...
System init for write_data ...
Total wall time: 9:53:43
