LAMMPS (24 Mar 2022)
OMP_NUM_THREADS environment is not set. Defaulting to 1 thread. (src/comm.cpp:98)
  using 1 OpenMP thread(s) per MPI task
package gpu 0
################################################################################
# LAMMPS input file                                                            #
#                                                                              #
# Attempted recreation of approximate setup of Zhao, et al.                    #
# Using nial09 eam, impactor at uP = 3 km/s                                    #
#                                                                              #
# richard terrett, 2018                                                        #
#                                                                              #
################################################################################

# variables

variable al_fcc_a equal 4.064
variable ni_fcc_a equal 3.528
variable v_up     equal 30
variable    box_x equal 514.00
variable   box_yz equal 100
variable  half_yz equal ${box_yz}/2
variable  half_yz equal 100/2
variable void_radius equal 20

# simulation construction

units      metal
dimension  3
boundary   p p p
atom_style atomic
timestep   0.01

# lattice construction

region       simulation_box block 0.00   ${box_x} 0.00 ${box_yz} 0.00 ${box_yz}
region       simulation_box block 0.00   514 0.00 ${box_yz} 0.00 ${box_yz}
region       simulation_box block 0.00   514 0.00 100 0.00 ${box_yz}
region       simulation_box block 0.00   514 0.00 100 0.00 100
create_box 2 simulation_box
Created orthogonal box = (0 0 0) to (514 100 100)
  6 by 1 by 1 MPI processor grid
region       al_a    block          0.00  14.00 0.00 ${box_yz} 0.00 ${box_yz}
region       al_a    block          0.00  14.00 0.00 100 0.00 ${box_yz}
region       al_a    block          0.00  14.00 0.00 100 0.00 100
region       ni_a    block         14.00  70.00 0.00 ${box_yz} 0.00 ${box_yz}
region       ni_a    block         14.00  70.00 0.00 100 0.00 ${box_yz}
region       ni_a    block         14.00  70.00 0.00 100 0.00 100
region       al_b    block         70.00  98.00 0.00 ${box_yz} 0.00 ${box_yz}
region       al_b    block         70.00  98.00 0.00 100 0.00 ${box_yz}
region       al_b    block         70.00  98.00 0.00 100 0.00 100
region       ni_b    block         98.00 154.00 0.00 ${box_yz} 0.00 ${box_yz}
region       ni_b    block         98.00 154.00 0.00 100 0.00 ${box_yz}
region       ni_b    block         98.00 154.00 0.00 100 0.00 100
region       al_c    block        154.00 182.00 0.00 ${box_yz} 0.00 ${box_yz}
region       al_c    block        154.00 182.00 0.00 100 0.00 ${box_yz}
region       al_c    block        154.00 182.00 0.00 100 0.00 100
region       ni_c    block        182.00 238.00 0.00 ${box_yz} 0.00 ${box_yz}
region       ni_c    block        182.00 238.00 0.00 100 0.00 ${box_yz}
region       ni_c    block        182.00 238.00 0.00 100 0.00 100
region       al_d    block        238.00 252.00 0.00 ${box_yz} 0.00 ${box_yz}
region       al_d    block        238.00 252.00 0.00 100 0.00 ${box_yz}
region       al_d    block        238.00 252.00 0.00 100 0.00 100
region       void    block        252.00 262.00 0.00 ${box_yz} 0.00 ${box_yz}
region       void    block        252.00 262.00 0.00 100 0.00 ${box_yz}
region       void    block        252.00 262.00 0.00 100 0.00 100
region       al_w    block        262.00 276.00 0.00 ${box_yz} 0.00 ${box_yz}
region       al_w    block        262.00 276.00 0.00 100 0.00 ${box_yz}
region       al_w    block        262.00 276.00 0.00 100 0.00 100
region       ni_w    block        276.00 332.00 0.00 ${box_yz} 0.00 ${box_yz}
region       ni_w    block        276.00 332.00 0.00 100 0.00 ${box_yz}
region       ni_w    block        276.00 332.00 0.00 100 0.00 100
region       al_x    block        332.00 360.00 0.00 ${box_yz} 0.00 ${box_yz}
region       al_x    block        332.00 360.00 0.00 100 0.00 ${box_yz}
region       al_x    block        332.00 360.00 0.00 100 0.00 100
region       ni_x    block        360.00 416.00 0.00 ${box_yz} 0.00 ${box_yz}
region       ni_x    block        360.00 416.00 0.00 100 0.00 ${box_yz}
region       ni_x    block        360.00 416.00 0.00 100 0.00 100
region       al_y    block        416.00 444.00 0.00 ${box_yz} 0.00 ${box_yz}
region       al_y    block        416.00 444.00 0.00 100 0.00 ${box_yz}
region       al_y    block        416.00 444.00 0.00 100 0.00 100
region       ni_y    block        444.00 500.00 0.00 ${box_yz} 0.00 ${box_yz}
region       ni_y    block        444.00 500.00 0.00 100 0.00 ${box_yz}
region       ni_y    block        444.00 500.00 0.00 100 0.00 100
region       al_z    block        500.00 514.00 0.00 ${box_yz} 0.00 ${box_yz}
region       al_z    block        500.00 514.00 0.00 100 0.00 ${box_yz}
region       al_z    block        500.00 514.00 0.00 100 0.00 100
region    chomp_b   sphere          84.0       ${half_yz}      ${half_yz}  ${void_radius}
region    chomp_b   sphere          84.0       50      ${half_yz}  ${void_radius}
region    chomp_b   sphere          84.0       50      50  ${void_radius}
region    chomp_b   sphere          84.0       50      50  20
region    chomp_c   sphere         168.0       ${half_yz}      ${half_yz}  ${void_radius}
region    chomp_c   sphere         168.0       50      ${half_yz}  ${void_radius}
region    chomp_c   sphere         168.0       50      50  ${void_radius}
region    chomp_c   sphere         168.0       50      50  20
region    chomp_x   sphere         346.0       ${half_yz}      ${half_yz}  ${void_radius}
region    chomp_x   sphere         346.0       50      ${half_yz}  ${void_radius}
region    chomp_x   sphere         346.0       50      50  ${void_radius}
region    chomp_x   sphere         346.0       50      50  20
region    chomp_y   sphere         430.0       ${half_yz}      ${half_yz}  ${void_radius}
region    chomp_y   sphere         430.0       50      ${half_yz}  ${void_radius}
region    chomp_y   sphere         430.0       50      50  ${void_radius}
region    chomp_y   sphere         430.0       50      50  20
region       left    block           0.0 257.00 0.0 200 0.0 200
region      right    block         257.0 514.00 0.0 200 0.0 200

lattice      fcc ${ni_fcc_a} orient x 1 1 1 orient y 1 -1 0 orient z 1 1 -2
lattice      fcc 3.528 orient x 1 1 1 orient y 1 -1 0 orient z 1 1 -2
Lattice spacing in x,y,z = 6.1106752 4.9893454 5.7611999
create_atoms 1 region ni_a
Created 52400 atoms
  using lattice units in orthogonal box = (0 0 0) to (514 100 100)
  create_atoms CPU = 0.012 seconds
create_atoms 1 region ni_b
Created 50582 atoms
  using lattice units in orthogonal box = (0 0 0) to (514 100 100)
  create_atoms CPU = 0.014 seconds
create_atoms 1 region ni_c
Created 50623 atoms
  using lattice units in orthogonal box = (0 0 0) to (514 100 100)
  create_atoms CPU = 0.020 seconds
create_atoms 1 region ni_w
Created 50572 atoms
  using lattice units in orthogonal box = (0 0 0) to (514 100 100)
  create_atoms CPU = 0.022 seconds
create_atoms 1 region ni_x
Created 52486 atoms
  using lattice units in orthogonal box = (0 0 0) to (514 100 100)
  create_atoms CPU = 0.011 seconds
create_atoms 1 region ni_y
Created 52375 atoms
  using lattice units in orthogonal box = (0 0 0) to (514 100 100)
  create_atoms CPU = 0.016 seconds
lattice      fcc ${al_fcc_a} orient x 1 1 1 orient y 1 -1 0 orient z 1 1 -2
lattice      fcc 4.064 orient x 1 1 1 orient y 1 -1 0 orient z 1 1 -2
Lattice spacing in x,y,z = 7.0390545 5.7473639 6.6364842
create_atoms 2 region al_a
Created 8102 atoms
  using lattice units in orthogonal box = (0 0 0) to (514 100 100)
  create_atoms CPU = 0.006 seconds
create_atoms 2 region al_b
Created 16926 atoms
  using lattice units in orthogonal box = (0 0 0) to (514 100 100)
  create_atoms CPU = 0.008 seconds
create_atoms 2 region al_c
Created 16910 atoms
  using lattice units in orthogonal box = (0 0 0) to (514 100 100)
  create_atoms CPU = 0.008 seconds
create_atoms 2 region al_d
Created 8463 atoms
  using lattice units in orthogonal box = (0 0 0) to (514 100 100)
  create_atoms CPU = 0.010 seconds
create_atoms 2 region al_w
Created 8416 atoms
  using lattice units in orthogonal box = (0 0 0) to (514 100 100)
  create_atoms CPU = 0.008 seconds
create_atoms 2 region al_x
Created 16912 atoms
  using lattice units in orthogonal box = (0 0 0) to (514 100 100)
  create_atoms CPU = 0.010 seconds
create_atoms 2 region al_y
Created 16901 atoms
  using lattice units in orthogonal box = (0 0 0) to (514 100 100)
  create_atoms CPU = 0.008 seconds
create_atoms 2 region al_z
Created 8461 atoms
  using lattice units in orthogonal box = (0 0 0) to (514 100 100)
  create_atoms CPU = 0.008 seconds

# pair potential

pair_style eam/alloy
pair_coeff * * Mishin-Ni-Al-2009.eam.alloy Ni Al

# reporting

thermo 100
dump 1 all atom 1000  thermalise.lammpstrj

delete_atoms overlap 2 all all
System init for delete_atoms ...
Neighbor list info ...
  update every 1 steps, delay 10 steps, check yes
  max neighbors/atom: 2000, page size: 100000
  master list distance cutoff = 8.28721
  ghost atom cutoff = 8.28721
  binsize = 4.143605, bins = 125 25 25
  1 neighbor lists, perpetual/occasional/extra = 0 1 0
  (1) command delete_atoms, occasional
      attributes: full, newton off
      pair build: full/bin/atomonly
      stencil: full/bin/3d
      bin: standard
Deleted 12135 atoms, new total = 397994
velocity all create 300 1 mom yes rot no
compute spatialbins all chunk/atom bin/1d x lower 0.01 ids every compress no units reduced # bound y 0.49 0.51 bound z 0.49 0.51
compute    bintemps all temp/chunk spatialbins temp com yes
fix temp_bias_out all ave/chunk 1 1000 1000 spatialbins temp bias bintemps file equilibrate.temp.bias.out
fix        vx_out all ave/chunk 1 1000 1000 spatialbins vx file equilibrate.vx.out



# Thermalisation
fix   4 all momentum 100 linear 1 1 1 angular
fix   1 all npt temp 300 300 $(100*dt) y  0.0 0.0 $(1000*dt) z 0.0 0.0 $(1000*dt)  drag 0.0
fix   1 all npt temp 300 300 1 y  0.0 0.0 $(1000*dt) z 0.0 0.0 $(1000*dt)  drag 0.0
fix   1 all npt temp 300 300 1 y  0.0 0.0 10 z 0.0 0.0 $(1000*dt)  drag 0.0
fix   1 all npt temp 300 300 1 y  0.0 0.0 10 z 0.0 0.0 10  drag 0.0
run   100000

CITE-CITE-CITE-CITE-CITE-CITE-CITE-CITE-CITE-CITE-CITE-CITE-CITE

Your simulation uses code contributions which should be cited:

- GPU package (short-range, long-range and three-body potentials):

@Article{Brown11,
 author = {W. M. Brown, P. Wang, S. J. Plimpton, A. N. Tharrington},
 title = {Implementing Molecular Dynamics on Hybrid High Performance Computers - Short Range Forces},
 journal = {Comp.~Phys.~Comm.},
 year =    2011,
 volume =  182,
 pages =   {898--911}
}

@Article{Brown12,
 author = {W. M. Brown, A. Kohlmeyer, S. J. Plimpton, A. N. Tharrington},
 title = {Implementing Molecular Dynamics on Hybrid High Performance Computers - Particle-Particle Particle-Mesh},
 journal = {Comp.~Phys.~Comm.},
 year =    2012,
 volume =  183,
 pages =   {449--459}
}

@Article{Brown13,
 author = {W. M. Brown, Y. Masako},
 title = {Implementing Molecular Dynamics on Hybrid High Performance Computers – Three-Body Potentials},
 journal = {Comp.~Phys.~Comm.},
 year =    2013,
 volume =  184,
 pages =   {2785--2793}
}

@Article{Trung15,
 author = {T. D. Nguyen, S. J. Plimpton},
 title = {Accelerating dissipative particle dynamics simulations for soft matter systems},
 journal = {Comput.~Mater.~Sci.},
 year =    2015,
 volume =  100,
 pages =   {173--180}
}

@Article{Trung17,
 author = {T. D. Nguyen},
 title = {GPU-accelerated Tersoff potentials for massively parallel Molecular Dynamics simulations},
 journal = {Comp.~Phys.~Comm.},
 year =    2017,
 volume =  212,
 pages =   {113--122}
}

@Article{Nikolskiy19,
 author = {V. Nikolskiy, V. Stegailov},
 title = {GPU acceleration of four-site water models in LAMMPS},
 journal = {Proceeding of the International Conference on Parallel Computing (ParCo 2019), Prague, Czech Republic},
 year =    2019
}

CITE-CITE-CITE-CITE-CITE-CITE-CITE-CITE-CITE-CITE-CITE-CITE-CITE

Neighbor list info ...
  update every 1 steps, delay 10 steps, check yes
  max neighbors/atom: 2000, page size: 100000
  master list distance cutoff = 8.28721
  ghost atom cutoff = 8.28721
  binsize = 4.143605, bins = 125 25 25
  0 neighbor lists, perpetual/occasional/extra = 0 0 0
Per MPI rank memory allocation (min/avg/max) = 28.41 | 28.58 | 28.72 Mbytes
   Step          Temp          E_pair         E_mol          TotEng         Press          Volume    
         0   300           -1651034.5      0             -1635601.1     -15252.243      5140000      
       100   296.23601     -1650930        0             -1635690.2     -10694.206      5085081.1    
       200   305.12347     -1651401.8      0             -1635704.9     -5347.828       5075565.7    
       300   305.11943     -1651640.3      0             -1635943.5     -3634.9967      5081363.6    
       400   311.08797     -1652247.1      0             -1636243.3     -4083.4365      5090983.6    
       500   306.82159     -1652366.5      0             -1636582.2      3212.1186      5097078.3    
       600   305.96052     -1652635.8      0             -1636895.8      1500.08        5106640.6    
       700   301.5139      -1652687.2      0             -1637175.9      5018.3724      5116693.2    
       800   296.84217     -1652570.1      0             -1637299.1      8203.2195      5123558.4    
       900   296.84453     -1652435.5      0             -1637164.4      7252.4473      5130629.2    
      1000   298.16925     -1652270.8      0             -1636931.6      5523.3627      5136121.7    
      1100   301.38716     -1652265.6      0             -1636760.9      8687.3397      5129891.4    
      1200   302.6403      -1652382.6      0             -1636813.4      3105.0769      5127167.5    
      1300   303.75434     -1652680        0             -1637053.5      2459.4858      5119017      
      1400   301.00856     -1652792.4      0             -1637307.1      372.40014      5110686      
      1500   300.07471     -1652928.7      0             -1637491.5     -964.30933      5100383.8    
      1600   296.51209     -1652820.2      0             -1637566.2     -5053.6512      5095300.3    
      1700   294.51114     -1652514.6      0             -1637363.6     -3640.5832      5085795.5    
      1800   294.33187     -1652225.4      0             -1637083.6     -7564.4364      5082075.4    
      1900   295.56463     -1652001.7      0             -1636796.5     -6331.8322      5080141.2    
      2000   299.94503     -1651965        0             -1636534.4     -5729.1723      5079739.1    
      2100   302.46129     -1651964        0             -1636404       -6524.3228      5084867.8    
      2200   304.42797     -1652192.1      0             -1636531       -3321.9969      5089539.9    
      2300   305.28042     -1652523.8      0             -1636818.8     -2501.5607      5093592.5    
      2400   303.9705      -1652760.2      0             -1637122.5     -493.38943      5104586      
      2500   302.24913     -1652925        0             -1637375.9      3069.9004      5107981.8    
      2600   297.45089     -1652868.1      0             -1637565.8      4022.1894      5118810.7    
      2700   296.72697     -1652777.4      0             -1637512.3      5681.054       5123853.8    
      2800   296.35142     -1652514.9      0             -1637269.3      7269.2984      5130917.8    
      2900   298.80571     -1652388.1      0             -1637016.1      7163.0645      5129559.5    
      3000   301.6886      -1652380.5      0             -1636860.2      4492.1549      5130892      
      3100   303.61694     -1652512.3      0             -1636892.8      4852.3313      5122643.8    
      3200   303.27702     -1652725.3      0             -1637123.4      2161.6268      5117805.1    
      3300   300.67271     -1652830.1      0             -1637362.1     -706.5127       5110055.3    
      3400   298.83838     -1652904.3      0             -1637530.6     -953.19246      5101933.6    
      3500   296.06277     -1652779.3      0             -1637548.5     -4483.6951      5093202.1    
      3600   296.18818     -1652541.4      0             -1637304.1     -5297.6148      5089979.2    
      3700   296.13403     -1652260.4      0             -1637025.9     -5230.5331      5082569.3    
      3800   297.11553     -1652038        0             -1636753       -6394.9172      5083733.9    
      3900   300.78198     -1652006.1      0             -1636532.5     -5286.6209      5083277.3    
      4000   302.85734     -1652045.9      0             -1636465.5     -4107.4301      5086997.6    
      4100   304.02404     -1652282        0             -1636641.5     -4294.3943      5092084.2    
      4200   303.62406     -1652548.2      0             -1636928.4     -804.88546      5097283.3    
      4300   302.33127     -1652747.3      0             -1637194       -118.00468      5103225.2    
      4400   300.50215     -1652892.2      0             -1637433        2105.0784      5112048      
      4500   297.05777     -1652844.6      0             -1637562.6      4426.4371      5118298.9    
      4600   297.07008     -1652721.3      0             -1637438.7      5505.6213      5124069.5    
      4700   297.61657     -1652512.6      0             -1637201.8      5431.3574      5129299      
      4800   299.75885     -1652404.6      0             -1636983.6      7132.8892      5127905.3    
      4900   301.1779      -1652366.6      0             -1636872.6      4578.9663      5126819.9    
      5000   302.96411     -1652520.9      0             -1636935        3899.9582      5121668.1    
      5100   302.36049     -1652720.7      0             -1637165.9      2041.9483      5115945.7    
      5200   301.33579     -1652884.5      0             -1637382.4      598.90833      5108111      
      5300   297.84954     -1652848        0             -1637525.3     -2981.0184      5101664.4    
      5400   295.86989     -1652693.2      0             -1637472.2     -3039.2335      5093816.6    
      5500   296.25323     -1652460.5      0             -1637219.8     -5225.3564      5088782.5    
      5600   296.41199     -1652210.7      0             -1636961.9     -5574.3666      5086396.5    
      5700   298.69968     -1652086        0             -1636719.5     -4965.5961      5084533.8    
      5800   301.15474     -1652038        0             -1636545.2     -5547.9151      5085928.4    
      5900   302.62613     -1652088        0             -1636519.6     -3790.7689      5089780.1    
      6000   303.97178     -1652354.3      0             -1636716.6     -2662.7799      5091840.7    
      6100   303.20424     -1652587.9      0             -1636989.7     -1819.1921      5100186      
      6200   302.07039     -1652774.9      0             -1637235        1210.8683      5103585.7    
      6300   299.64804     -1652859.4      0             -1637444.2      2104.5953      5112773      
      6400   297.3333      -1652812.1      0             -1637515.9      3784.1853      5118477      
      6500   297.28038     -1652661.1      0             -1637367.6      5218.9365      5124440.5    
      6600   298.3417      -1652497.8      0             -1637149.7      5697.839       5125604.7    
      6700   299.64964     -1652380.1      0             -1636964.7      4778.3076      5128016.7    
      6800   301.20413     -1652374.5      0             -1636879.2      5035.1199      5123950      
      6900   302.66465     -1652547.4      0             -1636976.9      3503.8794      5120117.8    
      7000   301.44006     -1652711.9      0             -1637204.4      1405.5118      5114118.5    
      7100   300.11242     -1652833.1      0             -1637394        333.91986      5107634.6    
      7200   297.60715     -1652806.2      0             -1637495.9     -1985.0556      5099424.1    
      7300   296.28754     -1652623.2      0             -1637380.8     -3900.6602      5095012      
      7400   297.44036     -1652448.7      0             -1637147       -4157.9826      5088717.5    
      7500   297.55321     -1652223.8      0             -1636916.3     -5365.1797      5087975      
      7600   299.39036     -1652104.4      0             -1636702.3     -5195.1246      5086838      
      7700   301.27094     -1652063.6      0             -1636564.8     -4337.0424      5087769.1    
      7800   302.71655     -1652151.3      0             -1636578.1     -4348.8414      5090627.8    
      7900   303.6105      -1652419.1      0             -1636800       -2387.8302      5095302.1    
      8000   301.98179     -1652579.5      0             -1637044.1     -694.20804      5099589.3    
      8100   300.68095     -1652734.6      0             -1637266.2      391.88741      5107165.5    
      8200   298.71937     -1652803.2      0             -1637435.7      2823.9089      5112716.1    
      8300   297.97558     -1652793        0             -1637463.7      3896.0784      5118714.1    
      8400   297.65526     -1652629.1      0             -1637316.4      4268.4982      5123522.1    
      8500   298.66186     -1652478.6      0             -1637114.1      5522.1501      5124906.4    
      8600   300.41128     -1652410.4      0             -1636955.9      4623.5595      5125166.7    
      8700   302.00679     -1652437.9      0             -1636901.3      3913.0181      5123582      
      8800   302.73284     -1652612.1      0             -1637038.1      2914.7676      5118520.4    
      8900   300.95089     -1652724.1      0             -1637241.8      1456.0394      5112605.4    
      9000   299.51746     -1652804.3      0             -1637395.7     -722.18089      5106089.3    
      9100   297.22503     -1652739.8      0             -1637449.2     -1791.9143      5099817.7    
      9200   297.17088     -1652592.4      0             -1637304.5     -3377.5036      5093656.9    
      9300   297.60562     -1652404.5      0             -1637094.3     -4459.8694      5090785.8    
      9400   297.74262     -1652199.1      0             -1636881.8     -4323.8412      5088400.3    
      9500   300.13989     -1652138.3      0             -1636697.8     -5010.4687      5088263.2    
      9600   301.46737     -1652103.2      0             -1636594.3     -4554.8589      5089677.6    
      9700   303.76376     -1652285        0             -1636658       -3285.2129      5091297.2    
      9800   302.16273     -1652419.7      0             -1636875       -2648.6139      5097131.6    
      9900   301.80111     -1652617.9      0             -1637091.9     -356.33668      5101487.5    
     10000   300.65226     -1652752.7      0             -1637285.7      993.22699      5108024.7    
     10100   298.50842     -1652776.5      0             -1637419.9      2536.858       5113361.9    
     10200   297.85087     -1652750.5      0             -1637427.6      3640.6465      5118873.7    
     10300   297.77461     -1652595.4      0             -1637276.5      4806.9926      5121850.4    
     10400   299.31692     -1652487.5      0             -1637089.2      4462.9843      5124539.6    
     10500   300.98427     -1652445.4      0             -1636961.4      4601.1489      5123832.2    
     10600   301.97934     -1652480.5      0             -1636945.3      3858.7361      5121922.9    
     10700   301.18787     -1652593.4      0             -1637098.9      2167.7997      5117183.4    
     10800   300.13921     -1652708.5      0             -1637267.9      875.283        5111554.5    
     10900   299.20931     -1652779.7      0             -1637387       -608.7185       5104484      
     11000   298.27107     -1652752.8      0             -1637408.3     -2422.7251      5099817.7    
     11100   297.98785     -1652584.9      0             -1637255.1     -3095.606       5094267.8    
     11200   297.62719     -1652372.3      0             -1637061       -4035.1631      5091422      
     11300   298.57756     -1652226.2      0             -1636866       -4480.0079      5089376.9    
     11400   300.41537     -1652167.7      0             -1636712.9     -4360.5199      5089277.7    
     11500   301.74126     -1652163.3      0             -1636640.3     -4085.5293      5090104.1    
     11600   302.2513      -1652282.8      0             -1636733.6     -3348.6514      5093927      
     11700   302.05484     -1652471.1      0             -1636932       -1637.2971      5097509.1    
     11800   301.79409     -1652648.3      0             -1637122.6     -614.0968       5103727.6    
     11900   300.5561      -1652758.5      0             -1637296.5      1190.7286      5108939.4    
     12000   298.97851     -1652785.5      0             -1637404.7      2667.9928      5113612.7    
     12100   297.68564     -1652701.1      0             -1637386.8      3320.7801      5118573.2    
     12200   298.44737     -1652583.3      0             -1637229.8      4594.1661      5121688.5    
     12300   299.88244     -1652498.2      0             -1637070.8      4560.7542      5123282.4    
     12400   301.3225      -1652477        0             -1636975.6      4210.6459      5123002.7    
     12500   302.20181     -1652535.9      0             -1636989.2      3335.2643      5120272      
     12600   301.57059     -1652648.8      0             -1637134.6      2226.2355      5115547.1    
     12700   300.183       -1652717.3      0             -1637274.5      426.94466      5109896.7    
     12800   299.17249     -1652769.6      0             -1637378.8     -956.12269      5104265.6    
     12900   297.84968     -1652691        0             -1637368.2     -2100.8858      5098929.1    
     13000   298.08714     -1652549.1      0             -1637214.1     -3392.6086      5095099.1    
     13100   298.30639     -1652382.2      0             -1637035.9     -3830.7857      5092010.4    
     13200   298.63994     -1652227.7      0             -1636864.3     -4215.5616      5089609.3    
     13300   300.65947     -1652208.6      0             -1636741.3     -4446.8183      5090477.8    
     13400   301.97488     -1652222.9      0             -1636688       -3367.9011      5091155.6    
     13500   301.69848     -1652314.7      0             -1636793.9     -2925.717       5095371.3    
     13600   301.70837     -1652490.8      0             -1636969.6     -1375.0695      5099264      
     13700   302.05388     -1652683.2      0             -1637144.2     -59.456436      5104468.2    
     13800   299.58599     -1652706.7      0             -1637294.6      1149.4836      5109598.2    
     13900   298.89233     -1652754.4      0             -1637378        2523.658       5114225.9    
     14000   298.53042     -1652695        0             -1637337.2      3613.4674      5118276.3    
     14100   299.40868     -1652596        0             -1637193        4089.5146      5121584.4    
     14200   300.17402     -1652510.3      0             -1637067.9      4321.6415      5122795.4    
     14300   301.39685     -1652500.4      0             -1636995.2      3985.4581      5121813.5    
     14400   301.55064     -1652535.7      0             -1637022.5      2849.8432      5118693.6    
     14500   301.2642      -1652651.3      0             -1637152.8      1804.2555      5114369      
     14600   300.06095     -1652714.5      0             -1637278        499.53314      5108651.1    
     14700   299.0039      -1652743.2      0             -1637361       -1115.0379      5103865.3    
     14800   298.19625     -1652655.6      0             -1637315       -2099.8229      5098905.8    
     14900   298.12951     -1652505.8      0             -1637168.6     -3160.4419      5095128.9    
     15000   298.37749     -1652362.3      0             -1637012.3     -3917.7044      5092309.2    
     15100   299.12783     -1652260.1      0             -1636871.5     -4061.8404      5090599      
     15200   300.00188     -1652196.4      0             -1636762.9     -3944.5082      5091083.8    
     15300   301.50662     -1652236.7      0             -1636725.8     -3348.9094      5093325.3    
     15400   302.15521     -1652383.8      0             -1636839.5     -2269.1285      5096500.1    
     15500   301.72762     -1652520        0             -1636997.8     -1138.5555      5100601      
     15600   300.94066     -1652635.1      0             -1637153.4      33.553127      5105398.1    
     15700   300.03116     -1652714.5      0             -1637279.5      1520.1443      5110019.6    
     15800   299.00206     -1652723.6      0             -1637341.6      2497.3221      5114653.4    
     15900   298.18976     -1652638.2      0             -1637298        3481.2099      5118585.1    
     16000   299.47389     -1652582.7      0             -1637176.3      4024.3179      5121083.6    
     16100   299.93876     -1652502        0             -1637071.7      3873.5221      5122164.1    
     16200   300.80176     -1652480.2      0             -1637005.6      3498.1507      5120368.4    
     16300   301.71637     -1652570.9      0             -1637049.2      2579.1391      5117171      
     16400   301.30314     -1652668.2      0             -1637167.8      1441.2512      5112818.8    
     16500   299.73405     -1652693.6      0             -1637273.9      189.15912      5108074.3    
     16600   298.58716     -1652687.6      0             -1637326.9     -973.28827      5102984.1    
     16700   298.56737     -1652619.5      0             -1637259.8     -2264.6235      5098579.1    
     16800   298.18852     -1652471.6      0             -1637131.4     -3135.7564      5094999.4    
     16900   298.53082     -1652358        0             -1637000.2     -3679.0445      5092389.1    
     17000   299.09471     -1652265.8      0             -1636878.9     -3994.0055      5091331.5    
     17100   300.42608     -1652239.7      0             -1636784.4     -3689.642       5092327.3    
     17200   301.0566      -1652256.5      0             -1636768.8     -2987.3827      5094459.1    
     17300   301.70935     -1652410.1      0             -1636888.8     -2096.8804      5097947.2    
     17400   301.51577     -1652536.5      0             -1637025.1     -910.67683      5101652      
     17500   300.97462     -1652642.4      0             -1637158.9      262.82218      5106096.4    
     17600   299.88627     -1652689.5      0             -1637262        1525.0604      5110828.4    
     17700   299.08792     -1652706.4      0             -1637320        2675.6106      5115195.6    
     17800   298.30144     -1652623.5      0             -1637277.5      3514.2404      5118681.2    
     17900   298.94        -1652548.1      0             -1637169.2      3774.85        5120858.9    
     18000   300.42628     -1652530.4      0             -1637075.1      3727.2793      5121083.9    
     18100   301.32021     -1652525.9      0             -1637024.6      3177.9923      5119057.4    
     18200   301.04491     -1652570.2      0             -1637083.1      2195.0552      5116045.1    
     18300   300.90259     -1652665.5      0             -1637185.7      1245.9428      5111708.3    
     18400   299.27174     -1652662.6      0             -1637266.6     -68.662155      5107302.8    
     18500   299.46312     -1652702        0             -1637296.3     -1314.8902      5102613.9    
     18600   298.99421     -1652607.1      0             -1637225.5     -2308.6024      5098114.6    
     18700   298.12543     -1652450.6      0             -1637113.6     -3225.5069      5094928.1    
     18800   298.88758     -1652375.1      0             -1636998.9     -3620.133       5092803.1    
     18900   299.26697     -1652286.2      0             -1636890.5     -3635.0946      5092293.3    
     19000   300.79126     -1652288.2      0             -1636814.1     -3426.6028      5093359.9    
     19100   301.88295     -1652357.1      0             -1636826.8     -2686.1462      5095723.6    
     19200   301.23828     -1652431.1      0             -1636934       -1769.2531      5098815.5    
     19300   301.39806     -1652559.8      0             -1637054.5     -784.98349      5102754.9    
     19400   300.62232     -1652632.1      0             -1637166.7      533.98742      5106941.8    
     19500   300.25026     -1652704.3      0             -1637258        1701.0702      5111500.5    
     19600   299.17819     -1652699.4      0             -1637308.2      2693.7973      5115917.4    
     19700   298.8543      -1652626.9      0             -1637252.4      3499.925       5118715.3    
     19800   299.84141     -1652581.2      0             -1637156        3596.1067      5120228.1    
     19900   300.41134     -1652530.8      0             -1637076.2      3425.662       5119861.9    
     20000   301.17648     -1652544.9      0             -1637051        2933.8964      5117916.1    
     20100   300.68014     -1652582.7      0             -1637114.3      2022.5834      5114868.9    
     20200   300.37512     -1652650.1      0             -1637197.5      948.95437      5110808.3    
     20300   300.10824     -1652703.3      0             -1637264.4     -239.44624      5106353.6    
     20400   298.92669     -1652653.4      0             -1637275.2     -1494.5966      5101694.6    
     20500   298.81566     -1652573.1      0             -1637200.7     -2531.6199      5097769.3    
     20600   298.70099     -1652467.6      0             -1637101.1     -3110.8659      5094644.4    
     20700   299.24439     -1652392.5      0             -1636998       -3538.8201      5093298.5    
     20800   299.23911     -1652294.7      0             -1636900.4     -3456.4286      5093316.1    
     20900   300.62737     -1652303.9      0             -1636838.2     -3044.2864      5094228.5    
     21000   301.92246     -1652399.9      0             -1636867.6     -2543.7423      5096808.4    
     21100   301.18691     -1652458.8      0             -1636964.3     -1472.3149      5099621.4    
     21200   301.06299     -1652558.8      0             -1637070.7     -480.71954      5103662.5    
     21300   300.3296      -1652623.8      0             -1637173.5      725.00328      5108026.9    
     21400   300.03056     -1652691.1      0             -1637256.1      1959.2699      5112496      
     21500   298.80842     -1652656.7      0             -1637284.6      2820.8054      5116232.7    
     21600   299.04565     -1652601.4      0             -1637217.1      3299.7192      5118793.4    
     21700   299.73739     -1652554.2      0             -1637134.3      3482.4058      5119471.1    
     21800   300.50888     -1652533.6      0             -1637074.1      3157.2589      5118829.6    
     21900   300.79392     -1652542        0             -1637067.8      2640.2738      5117059.4    
     22000   301.18997     -1652627.3      0             -1637132.7      1841.2955      5113913.7    
     22100   300.15645     -1652645.4      0             -1637204        654.04075      5109719.1    
     22200   299.5064      -1652663.7      0             -1637255.7     -560.45674      5105391.3    
     22300   298.46238     -1652605.6      0             -1637251.3     -1608.417       5100703      
     22400   299.0603      -1652558.6      0             -1637173.5     -2660.1582      5097403      
     22500   298.55824     -1652439.2      0             -1637080       -3049.099       5094774.3    
     22600   299.22757     -1652380.4      0             -1636986.7     -3409.4564      5093877.5    
     22700   299.70845     -1652321.2      0             -1636902.8     -3243.1759      5094011.2    
     22800   300.84808     -1652332.7      0             -1636855.6     -2893.6951      5095312      
     22900   301.0681      -1652379.5      0             -1636891.1     -2163.1256      5097486.6    
     23000   301.39645     -1652492.6      0             -1636987.3     -1335.5966      5100748.2    
     23100   301.33139     -1652592.5      0             -1637090.6     -154.94461      5104811.3    
     23200   300.80733     -1652660.2      0             -1637185.3      1027.1848      5109165.1    
     23300   299.23496     -1652647.5      0             -1637253.4      2008.3059      5113381.6    
     23400   298.83766     -1652633.8      0             -1637260.3      2843.9002      5116430.3    
     23500   299.85976     -1652617.5      0             -1637191.3      3217.0725      5118365.1    
     23600   299.3533      -1652517.9      0             -1637117.8      3230.5544      5118893.4    
     23700   300.60342     -1652536.2      0             -1637071.8      2955.143       5118240.3    
     23800   300.84314     -1652554.5      0             -1637077.8      2409.0801      5116232      
     23900   301.12661     -1652638        0             -1637146.6      1487.2494      5112900.3    
     24000   299.98603     -1652643.1      0             -1637210.4      353.23382      5108678.6    
     24100   299.62155     -1652663        0             -1637249.1     -808.33623      5104234.7    
     24200   298.57972     -1652579.8      0             -1637219.5     -1786.8063      5100254.8    
     24300   298.2882      -1652486        0             -1637140.6     -2548.4343      5097287.8    
     24400   298.86376     -1652432.2      0             -1637057.3     -3002.1717      5095297.7    
     24500   299.06313     -1652358.2      0             -1636973       -3241.0349      5094450.2    
     24600   300.04162     -1652335.9      0             -1636900.3     -3061.961       5094706.2    
     24700   300.67611     -1652335        0             -1636866.8     -2639.7713      5096108.5    
     24800   301.68192     -1652442.1      0             -1636922.2     -1974.0273      5098402.6    
     24900   301.35691     -1652517.9      0             -1637014.7     -1007.8337      5101839.6    
     25000   301.10536     -1652599.9      0             -1637109.7      121.86043      5106028.1    
     25100   300.2425      -1652639.9      0             -1637194.1      1175.4794      5110200.2    
     25200   299.28065     -1652646.7      0             -1637250.3      2138.6709      5113783.1    
     25300   299.20242     -1652636.4      0             -1637244.1      2775.9563      5116264.6    
     25400   299.09508     -1652562.1      0             -1637175.2      3037.6225      5118066.1    
     25500   299.69484     -1652526.9      0             -1637109.2      3135.7384      5118315.7    
     25600   300.66657     -1652539.6      0             -1637072        2776.8972      5117591      
     25700   300.76424     -1652568.3      0             -1637095.6      2115.0223      5115338.4    
     25800   300.63744     -1652629.7      0             -1637163.5      1197.0765      5111654.2    
     25900   299.70409     -1652634.5      0             -1637216.3      18.533074      5107580.6    
     26000   298.89666     -1652610.7      0             -1637234.1     -1027.4633      5103356.7    
     26100   299.3449      -1652586        0             -1637186.3     -1826.8495      5099793.6    
     26200   299.2811      -1652514.2      0             -1637117.8     -2608.3428      5097252.8    
     26300   299.0736      -1652427.1      0             -1637041.4     -2969.948       5095613.8    
     26400   298.79429     -1652331.8      0             -1636960.5     -3065.0816      5094772.1    
     26500   300.42036     -1652354.5      0             -1636899.5     -2980.2933      5095314.3    
     26600   301.309       -1652386        0             -1636885.2     -2439.8093      5096899.6    
     26700   301.04275     -1652442.3      0             -1636955.3     -1716.3486      5099469.3    
     26800   301.33622     -1652544.7      0             -1637042.6     -784.96         5103219      
     26900   300.94828     -1652610.6      0             -1637128.4      387.78231      5107140.9    
     27000   299.3908      -1652603.9      0             -1637201.8      1350.149       5110951.2    
     27100   299.3769      -1652649.8      0             -1637248.4      2168.3621      5114028.6    
     27200   299.09472     -1652618.9      0             -1637232.1      2728.2218      5116286.7    
     27300   299.48792     -1652568.8      0             -1637161.7      3059.7512      5117774.3    
     27400   300.23002     -1652548.9      0             -1637103.6      2978.5271      5118092.7    
     27500   300.67453     -1652549.3      0             -1637081.2      2628.249       5116877      
     27600   300.89465     -1652602.1      0             -1637122.7      1804.7538      5114181.7    
     27700   300.1259      -1652620.2      0             -1637180.3      826.09916      5110508      
     27800   299.50113     -1652625        0             -1637217.3     -150.90873      5106431.9    
     27900   299.21442     -1652613.9      0             -1637220.9     -1206.1051      5102617.9    
     28000   298.61207     -1652524.3      0             -1637162.3     -1995.4204      5099588.4    
     28100   298.74807     -1652471        0             -1637102       -2532.2196      5097164.9    
     28200   298.91868     -1652404.2      0             -1637026.5     -2941.2363      5095656.7    
     28300   299.73957     -1652373.1      0             -1636953.1     -3012.8533      5095130.9    
     28400   300.27352     -1652349        0             -1636901.6     -2724.3015      5095611.4    
     28500   301.6978      -1652433.9      0             -1636913.2     -2336.6903      5097885.1    
     28600   301.43542     -1652495.7      0             -1636988.4     -1361.0295      5100550.1    
     28700   300.9904      -1652552.3      0             -1637068       -483.77879      5104348.3    
     28800   300.68913     -1652616.5      0             -1637147.6      576.5053       5107959.8    
     28900   299.12853     -1652601.6      0             -1637213        1477.2672      5111404.5    
     29000   299.48652     -1652654.2      0             -1637247.2      2182.7375      5114260      
     29100   299.04666     -1652592.3      0             -1637207.9      2678.5234      5116454.4    
     29200   299.45753     -1652547.7      0             -1637142.2      2987.0318      5117678.9    
     29300   300.94049     -1652582.1      0             -1637100.3      2861.4127      5117659.8    
     29400   300.53329     -1652555.7      0             -1637094.8      2341.2386      5116092.9    
     29500   300.10937     -1652583.6      0             -1637144.6      1545.404       5113042.6    
     29600   300.30113     -1652638.3      0             -1637189.5      606.01255      5109341.5    
     29700   299.89314     -1652645.2      0             -1637217.3     -375.94679      5105692.8    
     29800   299.814       -1652638.4      0             -1637214.6     -1296.0273      5102136.1    
     29900   299.07712     -1652537.5      0             -1637151.6     -2016.6819      5099312.9    
     30000   298.76988     -1652461.3      0             -1637091.2     -2573.9614      5097007      
     30100   299.15301     -1652405.1      0             -1637015.3     -2840.1202      5095669.6    
     30200   299.88385     -1652375.6      0             -1636948.2     -2957.2005      5095348.6    
     30300   300.472       -1652367.8      0             -1636910.1     -2601.0823      5096463.3    
     30400   300.94605     -1652414.4      0             -1636932.3     -1935.2008      5098667.7    
     30500   300.84122     -1652484.6      0             -1637008       -1164.6663      5101703      
     30600   300.68211     -1652554.6      0             -1637086.2     -188.58301      5105130.8    
     30700   300.51423     -1652622.9      0             -1637163.1      726.25415      5108435.3    
     30800   299.52298     -1652629.4      0             -1637220.5      1536.5691      5111803.4    
     30900   299.38344     -1652635.5      0             -1637233.8      2315.9425      5114437.1    
     31000   299.73765     -1652604.8      0             -1637184.9      2677.0705      5116618.6    
     31100   300.14102     -1652570.8      0             -1637130.2      2871.8678      5117445      
     31200   299.91915     -1652527.5      0             -1637098.3      2660.4267      5117013.7    
     31300   300.28853     -1652552.4      0             -1637104.2      2049.2264      5115045.4    
     31400   299.98572     -1652588.7      0             -1637156        1320.6247      5111903      
     31500   300.51303     -1652652.8      0             -1637193        368.02075      5108402.5    
     31600   299.48612     -1652621.5      0             -1637214.5     -558.71283      5105015.4    
     31700   299.70575     -1652615.4      0             -1637197.1     -1347.9476      5101697.5    
     31800   299.18014     -1652525.5      0             -1637134.3     -2094.8508      5098979.3    
     31900   298.67769     -1652435.7      0             -1637070.3     -2630.1641      5096800.3    
     32000   298.95188     -1652379.3      0             -1636999.8     -2848.5153      5095747.9    
     32100   300.0446      -1652376.7      0             -1636941       -2770.1432      5095807      
     32200   300.89412     -1652392.4      0             -1636913       -2424.3133      5097367      
     32300   301.00274     -1652436.6      0             -1636951.7     -1698.8806      5099546.9    
     32400   301.16443     -1652518.9      0             -1637025.6     -944.82851      5102669.9    
     32500   300.61646     -1652566.8      0             -1637101.7     -27.726073      5105792.6    
     32600   299.96514     -1652604.9      0             -1637173.3      860.65544      5109017.1    
     32700   299.66246     -1652636.8      0             -1637220.8      1703.346       5112176.7    
     32800   299.37787     -1652624.6      0             -1637223.2      2338.6384      5114886.2    
     32900   299.47519     -1652578.1      0             -1637171.7      2707.2346      5116738.2    
     33000   299.96482     -1652555.7      0             -1637124.1      2773.9408      5117161.1    
     33100   300.3931      -1652552.2      0             -1637098.6      2384.9346      5116226      
     33200   300.24378     -1652554.5      0             -1637108.5      1888.8701      5114057.3    
     33300   299.9376      -1652592.2      0             -1637162        1057.4641      5110930.1    
     33400   300.10771     -1652633        0             -1637194.1      147.80095      5107790.7    
     33500   299.00862     -1652590        0             -1637207.6     -593.29338      5104314.4    
     33600   299.59087     -1652582.5      0             -1637170.1     -1552.0428      5101429.1    
     33700   298.66338     -1652480        0             -1637115.4     -2189.0397      5098509.4    
     33800   299.20515     -1652445.8      0             -1637053.3     -2632.0219      5096668      
     33900   299.58481     -1652401.1      0             -1636989.1     -2808.3511      5095954.3    
     34000   299.54644     -1652345.6      0             -1636935.5     -2591.8414      5096520      
     34100   300.8195      -1652396.8      0             -1636921.2     -2153.9141      5098073.3    
     34200   300.92913     -1652459.1      0             -1636978       -1507.5127      5100344.2    
     34300   301.02782     -1652534.1      0             -1637047.8     -736.70855      5103308.6    
     34400   300.33283     -1652569.7      0             -1637119.2      167.20504      5106375      
     34500   300.40137     -1652636.7      0             -1637182.7      952.66066      5109661.7    
     34600   299.95529     -1652651.3      0             -1637220.3      1791.4682      5112684      
     34700   299.46091     -1652621.8      0             -1637216.2      2424.7338      5115140.4    
     34800   299.51305     -1652572        0             -1637163.6      2615.3604      5116737.9    
     34900   299.72664     -1652540.1      0             -1637120.8      2627.9607      5116576.3    
     35000   300.34788     -1652552.2      0             -1637100.9      2228.1888      5115434.8    
     35100   300.28995     -1652571.1      0             -1637122.8      1613.9599      5113138.3    
     35200   300.52116     -1652632.3      0             -1637172.1      901.68299      5110264.7    
     35300   300.06391     -1652630.6      0             -1637193.9      36.40428       5106981      
     35400   299.55876     -1652607        0             -1637196.4     -838.652        5103847.7    
     35500   299.21571     -1652535.3      0             -1637142.2     -1561.6142      5100701.6    
     35600   299.38508     -1652499.7      0             -1637098       -2251.2651      5098098.7    
     35700   299.15884     -1652426        0             -1637035.9     -2690.6373      5096773.6    
     35800   299.44078     -1652382.1      0             -1636977.5     -2558.9285      5096362.7    
     35900   299.97449     -1652367.2      0             -1636935.2     -2441.4415      5097379.2    
     36000   300.90153     -1652419.1      0             -1636939.3     -1965.6929      5098880.5    
     36100   300.1437      -1652443.2      0             -1637002.4     -1292.1545      5101002.1    
     36200   300.93859     -1652548.5      0             -1637066.8     -587.04534      5103957.1    
     36300   300.54359     -1652593.2      0             -1637131.8      319.66018      5107021.5    
     36400   300.16644     -1652630.2      0             -1637188.3      1199.293       5110374.1    
     36500   299.91372     -1652651        0             -1637222        1908.5333      5113238.9    
     36600   299.32156     -1652607.3      0             -1637208.8      2427.296       5115389.8    
     36700   300.06387     -1652590.4      0             -1637153.7      2536.4721      5116413.4    
     36800   300.43383     -1652575.5      0             -1637119.8      2445.596       5115924      
     36900   300.07669     -1652542.8      0             -1637105.5      2052.9451      5114723.4    
     37000   299.98743     -1652574        0             -1637141.2      1490.9836      5112409.3    
     37100   299.59678     -1652592.5      0             -1637179.9      680.33595      5109754.5    
     37200   299.96701     -1652625.5      0             -1637193.8     -127.10444      5106297.4    
     37300   299.66355     -1652597.7      0             -1637181.6     -1059.5894      5103101.4    
     37400   299.12769     -1652510.3      0             -1637121.8     -1749.6844      5100157.4    
     37500   299.42653     -1652484.1      0             -1637080.2     -2290.7597      5097989      
     37600   299.81979     -1652444.9      0             -1637020.8     -2630.2998      5096935.4    
     37700   299.92134     -1652398.2      0             -1636968.9     -2436.2239      5096889.6    
     37800   300.81593     -1652413.9      0             -1636938.5     -2320.5092      5097942.9    
     37900   300.91657     -1652442.5      0             -1636962       -1768.0016      5099500.6    
     38000   300.7161      -1652493.2      0             -1637022.9     -1189.0037      5101704.2    
     38100   300.36295     -1652534.4      0             -1637082.4     -327.75048      5104608.7    
     38200   300.53585     -1652604.3      0             -1637143.3      484.76286      5107910.1    
     38300   300.05478     -1652630.6      0             -1637194.4      1332.5572      5111088.4    
     38400   299.25986     -1652612.9      0             -1637217.6      1979.5785      5113551.7    
     38500   300.00859     -1652622.8      0             -1637189        2334.5398      5115395.3    
     38600   300.34159     -1652592        0             -1637141        2491.0309      5115887.1    
     38700   300.36004     -1652566.9      0             -1637115        2288.8669      5115450.1    
     38800   300.65009     -1652580.6      0             -1637113.8      1865.9203      5114103.5    
     38900   299.84557     -1652583.4      0             -1637157.9      1364.7212      5111644.7    
     39000   299.90886     -1652615.6      0             -1637186.9      462.97296      5108997      
     39100   299.57349     -1652602.6      0             -1637191.2     -372.68699      5105484.7    
     39200   299.25502     -1652558.5      0             -1637163.5     -1187.5695      5102377.5    
     39300   299.37408     -1652512.1      0             -1637110.9     -1863.2508      5099755.2    
     39400   298.89745     -1652440.7      0             -1637064       -2294.0524      5098108.9    
     39500   300.15828     -1652451.8      0             -1637010.3     -2452.4391      5097261.4    
     39600   299.93209     -1652393.9      0             -1636964.1     -2425.014       5097407.9    
     39700   301.20997     -1652441.8      0             -1636946.2     -2115.2816      5098419.7    
     39800   301.23329     -1652480.8      0             -1636983.9     -1608.786       5099980.9    
     39900   300.58562     -1652501.3      0             -1637037.7     -975.32105      5102540.8    
     40000   301.21747     -1652593.3      0             -1637097.3     -100.54798      5105443      
     40100   300.1603      -1652596.3      0             -1637154.7      694.4661       5108755.4    
     40200   299.9581      -1652628.6      0             -1637197.4      1460.9969      5111652.8    
     40300   299.3752      -1652609.8      0             -1637208.5      2009.9476      5113809.6    
     40400   299.90623     -1652597.5      0             -1637168.9      2289.0664      5115182.8    
     40500   300.13599     -1652570.1      0             -1637129.7      2381.0412      5115597.5    
     40600   300.00509     -1652547.2      0             -1637113.5      2182.7841      5115007.9    
     40700   300.53965     -1652582.4      0             -1637121.2      1765.7473      5113422      
     40800   300.15143     -1652617        0             -1637175.8      1059.7814      5111073.9    
     40900   299.65455     -1652609.6      0             -1637194        266.92945      5107954.3    
     41000   299.8941      -1652616.7      0             -1637188.8     -536.14477      5104705.7    
     41100   299.2153      -1652532.1      0             -1637139.1     -1339.1623      5101898.3    
     41200   299.46079     -1652505.5      0             -1637099.8     -1809.3673      5099494.3    
     41300   299.82311     -1652476.7      0             -1637052.4     -2310.6769      5098271.1    
     41400   299.64498     -1652417.5      0             -1637002.4     -2372.5419      5097463.7    
     41500   299.70913     -1652381.7      0             -1636963.3     -2307.608       5097739.1    
     41600   301.27994     -1652452.9      0             -1636953.6     -2021.113       5098845.9    
     41700   301.13222     -1652492.3      0             -1637000.6     -1435.1587      5100632.6    
     41800   300.57275     -1652513.8      0             -1637051       -765.54938      5103346.8    
     41900   300.53956     -1652571.3      0             -1637110.2      69.188814      5106299.9    
     42000   300.19843     -1652608.2      0             -1637164.6      912.14288      5109418.2    
     42100   299.71959     -1652618.1      0             -1637199.2      1596.1924      5111881.6    
     42200   298.98288     -1652582.3      0             -1637201.3      1912.7324      5114058.6    
     42300   299.81955     -1652580.8      0             -1637156.7      2351.6511      5114894.4    
     42400   300.3534      -1652576.2      0             -1637124.7      2281.118       5115497      
     42500   300.01719     -1652545        0             -1637110.7      2040.2289      5114646.4    
     42600   300.41448     -1652587.8      0             -1637133.1      1585.4921      5112903.8    
     42700   299.81095     -1652607        0             -1637183.3      830.01802      5110154.2    
     42800   299.78405     -1652614.8      0             -1637192.5      86.439188      5107216.8    
     42900   300.22132     -1652621.1      0             -1637176.3     -698.18102      5104202.4    
     43000   299.49874     -1652532.5      0             -1637124.9     -1343.2019      5101511.9    
     43100   299.24291     -1652483.9      0             -1637089.4     -1958.7746      5099569.1    
     43200   299.19574     -1652434.6      0             -1637042.6     -2134.3764      5098197.5    
     43300   299.53503     -1652408.1      0             -1636998.6     -2341.0956      5097729.9    
     43400   300.49565     -1652424.7      0             -1636965.9     -2253.4837      5098129.5    
     43500   300.99203     -1652448.9      0             -1636964.5     -1789.1796      5099182.6    
     43600   300.44888     -1652475.9      0             -1637019.4     -1367.9878      5101616.3    
     43700   300.59822     -1652531.2      0             -1637067.1     -502.10414      5104145.6    
     43800   300.17155     -1652565.8      0             -1637123.6      277.08088      5107099.5    
     43900   299.64351     -1652587.1      0             -1637172        952.96827      5109952.9    
     44000   300.06535     -1652640.3      0             -1637203.6      1584.1191      5112121.4    
     44100   299.57843     -1652608.9      0             -1637197.1      2034.521       5114093.9    
     44200   299.95245     -1652578.6      0             -1637147.7      2276.8065      5114910.9    
     44300   300.12851     -1652560.5      0             -1637120.5      2188.8518      5115228.3    
     44400   300.3563      -1652569.6      0             -1637117.9      1997.8721      5114025.8    
     44500   299.76151     -1652573.2      0             -1637152        1273.0401      5112211.9    
     44600   299.71275     -1652607.8      0             -1637189.2      658.59254      5109262      
     44700   299.13853     -1652574.9      0             -1637185.8     -84.706751      5106329.9    
     44800   299.77933     -1652581.2      0             -1637159.1     -940.93483      5103770.3    
     44900   299.51085     -1652524.1      0             -1637115.9     -1379.066       5101113.6    
     45000   299.3891      -1652487.2      0             -1637085.3     -2014.0265      5099340.5    
     45100   299.47528     -1652443.7      0             -1637037.3     -2210.0638      5098242.2    
     45200   300.19809     -1652438.9      0             -1636995.4     -2293.6057      5097781.8    
     45300   300.30747     -1652415        0             -1636965.8     -2153.032       5098535      
     45400   300.47375     -1652435.5      0             -1636977.8     -1671.8539      5099769      
     45500   301.03648     -1652523.5      0             -1637036.8     -1125.8637      5102368      
     45600   300.58472     -1652546.7      0             -1637083.2     -276.91751      5104850.3    
     45700   299.70428     -1652553.4      0             -1637135.2      363.32013      5107823.2    
     45800   299.79944     -1652603        0             -1637179.9      1122.4127      5110147.1    
     45900   299.26514     -1652596.8      0             -1637201.3      1602.1556      5112516      
     46000   299.17256     -1652572        0             -1637181.2      2087.3776      5114151.6    
     46100   299.87114     -1652561.6      0             -1637134.8      2255.3487      5114995.8    
     46200   300.48141     -1652578.9      0             -1637120.8      2051.9729      5114974.2    
     46300   300.35347     -1652579.6      0             -1637128.1      1784.8735      5113463.9    
     46400   299.55447     -1652581.2      0             -1637170.7      1145.4456      5111416.3    
     46500   299.96885     -1652627        0             -1637195.2      441.20414      5108499.5    
     46600   299.62851     -1652597.2      0             -1637182.9     -308.44698      5105871.7    
     46700   299.53867     -1652561.5      0             -1637151.9     -956.5523       5103195.6    
     46800   299.51173     -1652523.9      0             -1637115.6     -1575.2591      5101112.9    
     46900   299.18215     -1652470.1      0             -1637078.7     -1928.2239      5099164.7    
     47000   299.51323     -1652438.2      0             -1637029.8     -2221.0272      5098176      
     47100   300.30733     -1652439        0             -1636989.8     -2279.3833      5098177.1    
     47200   300.70161     -1652438.3      0             -1636968.8     -1941.4684      5098972.9    
     47300   300.28311     -1652443.6      0             -1636995.6     -1545.7664      5100657.4    
     47400   300.79508     -1652524.3      0             -1637050       -887.4833       5103116.9    
     47500   300.39415     -1652549.2      0             -1637095.5     -153.93481      5105476.7    
     47600   300.28837     -1652596.4      0             -1637148.2      455.55753      5108363.7    
     47700   299.84045     -1652609.7      0             -1637184.5      1216.9198      5110574.9    
     47800   299.12349     -1652584.9      0             -1637196.6      1724.2842      5112808.5    
     47900   299.54835     -1652572.2      0             -1637162        2070.5236      5114348.3    
     48000   300.43273     -1652581.5      0             -1637125.9      2165.9981      5114961.6    
     48100   300.20492     -1652562.5      0             -1637118.6      2028.3955      5114251.7    
     48200   300.22461     -1652582.2      0             -1637137.3      1553.7307      5112759.9    
     48300   300.09721     -1652620.6      0             -1637182.2      928.71335      5110622.6    
     48400   299.54136     -1652605.1      0             -1637195.3      349.74387      5107746.9    
     48500   299.86127     -1652607.8      0             -1637181.6     -510.48816      5105467.7    
     48600   299.07123     -1652528.7      0             -1637143.1     -1001.4509      5102744.7    
     48700   299.49526     -1652512.1      0             -1637104.7     -1632.4041      5100694.8    
     48800   299.47295     -1652470.6      0             -1637064.3     -2067.6926      5099050.7    
     48900   299.61417     -1652432.5      0             -1637019       -2159.0357      5098157.9    
     49000   300.12554     -1652423.7      0             -1636983.8     -2106.9543      5098493.2    
     49100   300.31687     -1652423.1      0             -1636973.4     -1804.6728      5099614      
     49200   300.57853     -1652480.1      0             -1637017       -1279.3065      5101374.9    
     49300   300.10318     -1652499.6      0             -1637060.9     -682.37138      5103632.9    
     49400   300.31073     -1652558.8      0             -1637109.4     -50.860463      5106194.9    
     49500   300.18732     -1652599.6      0             -1637156.6      742.71363      5108659.8    
     49600   299.30401     -1652582.8      0             -1637185.2      1271.7851      5111123.6    
     49700   299.75999     -1652608.6      0             -1637187.6      1780.4666      5113214.7    
     49800   299.64705     -1652560        0             -1637144.7      2171.4799      5114359.3    
     49900   299.69936     -1652533.9      0             -1637115.9      2007.3557      5114766.2    
     50000   299.8992      -1652546.5      0             -1637118.3      1888.9715      5113803.2    
     50100   300.74689     -1652615.8      0             -1637144        1480.7242      5112001.6    
     50200   300.12802     -1652624.3      0             -1637184.3      724.83645      5110026.2    
     50300   299.69087     -1652609.6      0             -1637192.1      235.04337      5107263.4    
     50400   298.93447     -1652552.9      0             -1637174.3     -525.66599      5104805.9    
     50500   299.59189     -1652546.6      0             -1637134.2     -1168.145       5102201.9    
     50600   299.34254     -1652492.6      0             -1637093       -1761.7475      5100435.8    
     50700   299.76241     -1652472.8      0             -1637051.6     -1999.2201      5098756.8    
     50800   299.66358     -1652426        0             -1637009.9     -2229.8659      5098543.4    
     50900   299.87892     -1652407.8      0             -1636980.6     -1960.5796      5098934.3    
     51000   300.65326     -1652450.3      0             -1636983.3     -1599.7657      5100211.8    
     51100   300.59834     -1652502.1      0             -1637037.9     -1218.4809      5102019.2    
     51200   300.23326     -1652519.8      0             -1637074.4     -496.82439      5104150.4    
     51300   299.80606     -1652546.4      0             -1637123        154.57771      5106608.2    
     51400   299.967       -1652596.6      0             -1637164.9      801.76436      5109369.4    
     51500   299.78016     -1652610.1      0             -1637188        1477.2755      5111499.2    
     51600   299.39709     -1652582.8      0             -1637180.4      1824.8244      5113493.6    
     51700   300.0262      -1652567.2      0             -1637132.4      2063.8383      5114281.3    
     51800   300.56204     -1652574.9      0             -1637112.6      1993.5559      5114415.8    
     51900   299.70426     -1652536.2      0             -1637118        1704.2966      5113162.1    
     52000   299.87568     -1652578.2      0             -1637151.2      1211.754       5111578      
     52100   299.58558     -1652592.5      0             -1637180.4      717.98353      5109218.3    
     52200   299.5427      -1652589.2      0             -1637179.4      37.254894      5106863.2    
     52300   300.12398     -1652599.4      0             -1637159.6     -731.03534      5104225.6    
     52400   299.40612     -1652520.5      0             -1637117.7     -1261.4556      5101706.4    
     52500   299.5414      -1652496        0             -1637086.2     -1810.6093      5100064.8    
     52600   299.63106     -1652460.7      0             -1637046.3     -2006.1081      5098854.5    
     52700   300.30819     -1652457        0             -1637007.7     -2069.6976      5098843.9    
     52800   300.02224     -1652417.1      0             -1636982.6     -1911.7203      5099382.7    
     52900   300.55439     -1652457.5      0             -1636995.6     -1541.9497      5100769.8    
     53000   300.60305     -1652515.9      0             -1637051.5     -1010.4822      5102574      
     53100   300.65075     -1652554.1      0             -1637087.3     -417.52645      5104830.9    
     53200   300.25        -1652579.2      0             -1637132.9      308.76966      5107255      
     53300   300.13698     -1652610.6      0             -1637170.1      949.18567      5109969.4    
     53400   299.83815     -1652615        0             -1637189.9      1477.5371      5112069.1    
     53500   299.74805     -1652597.9      0             -1637177.5      1893.7811      5113576.8    
     53600   300.44376     -1652580.3      0             -1637124.1      2010.9288      5114108.8    
     53700   300.24102     -1652557        0             -1637111.2      1799.2091      5114023.4    
     53800   300.28688     -1652575        0             -1637126.9      1579.142       5112690.3    
     53900   300.32167     -1652614.6      0             -1637164.7      1064.3484      5111022.5    
     54000   299.96752     -1652615.1      0             -1637183.4      531.8586       5108672.8    
     54100   300.23769     -1652622.3      0             -1637176.7     -208.62759      5106256.4    
     54200   299.6549      -1652567.3      0             -1637151.7     -847.94254      5103536.7    
     54300   299.78509     -1652541.4      0             -1637119.1     -1421.6916      5101326.3    
     54400   299.30004     -1652479.8      0             -1637082.4     -1814.6066      5099800.5    
     54500   299.74482     -1652460.7      0             -1637040.5     -1962.5916      5099039.1    
     54600   299.76223     -1652425        0             -1637003.8     -2063.7887      5099156.8    
     54700   300.47474     -1652443.7      0             -1636985.8     -1764.2518      5099728.7    
     54800   300.96339     -1652494.2      0             -1637011.2     -1425.1049      5101086.7    
     54900   300.44999     -1652518.6      0             -1637062.1     -906.45253      5103065.6    
     55000   300.33019     -1652546.2      0             -1637095.8     -196.19731      5105342.3    
     55100   300.21175     -1652586.6      0             -1637142.3      365.57782      5108100      
     55200   299.85661     -1652600.4      0             -1637174.3      1093.2919      5110333.8    
     55300   299.9293      -1652619        0             -1637189.2      1557.4489      5112468.5    
     55400   299.68788     -1652579.6      0             -1637162.3      1851.5383      5113582.4    
     55500   300.75587     -1652588.2      0             -1637115.9      1895.4931      5113987.2    
     55600   300.20962     -1652558        0             -1637113.8      1769.2463      5113548.7    
     55700   299.29299     -1652532.2      0             -1637135.2      1492.7953      5112338.4    
     55800   300.14962     -1652612.8      0             -1637171.7      913.13738      5110464.7    
     55900   299.83358     -1652605.7      0             -1637180.8      331.48762      5108088.9    
     56000   299.03937     -1652552.1      0             -1637168.2     -352.98896      5105443.8    
     56100   299.41928     -1652551.4      0             -1637147.8     -995.94461      5103052.5    
     56200   299.76615     -1652534.1      0             -1637112.7     -1505.9975      5100980.5    
     56300   299.4982      -1652480.1      0             -1637072.5     -1884.9028      5099871.2    
     56400   299.69775     -1652448.6      0             -1637030.8     -1932.971       5099108.4    
     56500   300.52454     -1652459.8      0             -1636999.4     -1960.9721      5099435.2    
     56600   300.7967      -1652463.5      0             -1636989.2     -1624.7964      5100072.8    
     56700   300.50587     -1652488        0             -1637028.5     -1261.2581      5101527.5    
     56800   300.31177     -1652520.6      0             -1637071.2     -742.67932      5103750      
     56900   300.59805     -1652573.5      0             -1637109.3      16.333247      5106000.2    
     57000   300.01551     -1652587.2      0             -1637153        558.81878      5108777.6    
     57100   299.70583     -1652597.3      0             -1637179.1      1245.3042      5110665.2    
     57200   299.24562     -1652576.2      0             -1637181.6      1528.9013      5112714.4    
     57300   299.61695     -1652553.2      0             -1637139.5      1895.2061      5113312.9    
     57400   300.206       -1652552.3      0             -1637108.3      1782.7238      5113894.1    
     57500   300.31655     -1652566.7      0             -1637117        1781.5741      5113120.4    
     57600   300.31328     -1652593.9      0             -1637144.4      1334.1084      5111922.6    
     57700   300.16018     -1652615.2      0             -1637173.5      739.22908      5109936.5    
     57800   300.13337     -1652618        0             -1637177.7      151.94218      5107329.7    
     57900   299.72211     -1652584.4      0             -1637165.4     -539.53769      5104801.8    
     58000   299.59443     -1652547.3      0             -1637134.7     -1072.6036      5102662.1    
     58100   299.64157     -1652511.8      0             -1637096.9     -1521.0399      5100813.7    
     58200   299.55014     -1652471.6      0             -1637061.4     -1860.8576      5099860.4    
     58300   300.38097     -1652477.9      0             -1637024.9     -1914.5021      5099237.3    
     58400   299.982       -1652429.7      0             -1636997.2     -1850.6902      5099645.3    
     58500   300.50127     -1652453.9      0             -1636994.7     -1541.9769      5100320.3    
     58600   300.46806     -1652505        0             -1637047.5     -1219.226       5102282.4    
     58700   300.82464     -1652559.6      0             -1637083.8     -444.74729      5104098.8    
     58800   300.09891     -1652561.5      0             -1637123.1      110.14548      5106856.2    
     58900   299.89917     -1652590.8      0             -1637162.6      692.81178      5109066.2    
     59000   299.77137     -1652603.9      0             -1637182.3      1325.7878      5110977.1    
     59100   299.33382     -1652571.6      0             -1637172.5      1564.4342      5112634.6    
     59200   300.25359     -1652568.1      0             -1637121.7      1854.4187      5113442.5    
     59300   300.55977     -1652569.1      0             -1637107        1806.1677      5113602      
     59400   300.69204     -1652590.8      0             -1637121.8      1583.7846      5112738.6    
     59500   299.94453     -1652581.8      0             -1637151.3      1152.0685      5111405.9    
     59600   299.37732     -1652571.8      0             -1637170.4      691.1987       5109051.5    
     59700   299.77633     -1652592.9      0             -1637171       -52.670268      5106755.9    
     59800   299.68472     -1652571.3      0             -1637154.1     -670.40325      5104284.5    
     59900   299.59799     -1652531.8      0             -1637119.1     -1095.7         5102414.8    
     60000   300.05072     -1652523.5      0             -1637087.5     -1597.264       5100793.1    
     60100   300.1411      -1652495.5      0             -1637054.9     -1817.2502      5099907.8    
     60200   299.91301     -1652447.3      0             -1637018.4     -1850.3999      5099342.5    
     60300   299.94568     -1652427.6      0             -1636997       -1802.3517      5100024.4    
     60400   300.63553     -1652472.4      0             -1637006.3     -1433.889       5100862.9    
     60500   300.29537     -1652510        0             -1637061.4     -947.33012      5102822.6    
     60600   300.25596     -1652536.5      0             -1637090       -311.94926      5104852.1    
     60700   300.36906     -1652584.3      0             -1637131.9      208.05362      5107498.1    
     60800   299.9919      -1652599        0             -1637166        869.56226      5109361.8    
     60900   299.54309     -1652591.3      0             -1637181.4      1226.0788      5111350.4    
     61000   299.40919     -1652567.2      0             -1637164.2      1671.7273      5112604.6    
     61100   300.5837      -1652575        0             -1637111.6      1829.1635      5113419.2    
     61200   300.1428      -1652545.1      0             -1637104.3      1723.256       5113525      
     61300   300.36826     -1652580.5      0             -1637128.1      1541.4661      5112232.8    
     61400   299.78945     -1652581        0             -1637158.5      1019.8632      5110783.4    
     61500   299.89335     -1652598        0             -1637170        501.90226      5108418.5    
     61600   299.8455      -1652588.4      0             -1637163       -168.73361      5106231.7    
     61700   300.13179     -1652583.3      0             -1637143.2     -684.13641      5103915.5    
     61800   299.73641     -1652532.6      0             -1637112.7     -1285.1501      5102154      
     61900   299.41634     -1652490.7      0             -1637087.4     -1580.3827      5100651.9    
     62000   299.68621     -1652468.3      0             -1637051.1     -1789.3248      5099740.4    
     62100   299.56287     -1652427.4      0             -1637016.5     -1863.4402      5099527      
     62200   300.28555     -1652448.1      0             -1637000       -1647.1552      5100131.9    
     62300   300.63064     -1652484.2      0             -1637018.4     -1324.6499      5101573.4    
     62400   300.16069     -1652513.8      0             -1637072.1     -758.14848      5103363.5    
     62500   300.6453      -1652566.3      0             -1637099.7     -242.63264      5105547.4    
     62600   299.30999     -1652537.3      0             -1637139.4      402.2125       5107772.7    
     62700   299.51097     -1652579.6      0             -1637171.3      904.78746      5109801.5    
     62800   299.49073     -1652587.7      0             -1637180.5      1316.7648      5111584.6    
     62900   300.14262     -1652596.1      0             -1637155.3      1723.5031      5112779.5    
     63000   300.63557     -1652571.6      0             -1637105.5      1786.2641      5113426.7    
     63100   300.09946     -1652547.1      0             -1637108.6      1666.4745      5113110.8    
     63200   300.18353     -1652580.3      0             -1637137.4      1371.4751      5111888.1    
     63300   299.77897     -1652586.7      0             -1637164.7      857.04034      5110049.9    
     63400   299.57537     -1652580        0             -1637168.5      379.54075      5107889.6    
     63500   299.88814     -1652588.1      0             -1637160.5     -287.32002      5105733.5    
     63600   299.54957     -1652550.7      0             -1637140.5     -819.47179      5103680.9    
     63700   299.28217     -1652510.7      0             -1637114.2     -1223.1854      5101789.6    
     63800   299.82058     -1652506        0             -1637081.8     -1605.2695      5100470.5    
     63900   299.67102     -1652460.6      0             -1637044.2     -1823.7824      5099802.7    
     64000   300.10771     -1652453.6      0             -1637014.7     -1758.0098      5099608.6    
     64100   300.58016     -1652467.3      0             -1637004.1     -1615.7373      5100710      
     64200   300.5245      -1652496.7      0             -1637036.3     -1116.5296      5102027.5    
     64300   300.45957     -1652541        0             -1637083.9     -675.27007      5103989.9    
     64400   300.16253     -1652552.2      0             -1637110.5     -107.35885      5105978.1    
     64500   299.86722     -1652575.7      0             -1637149.1      456.92106      5108249.3    
     64600   300.23527     -1652621.2      0             -1637175.7      1050.5949      5110064.1    
     64700   299.55466     -1652586.4      0             -1637176        1454.6559      5111872.5    
     64800   300.07568     -1652566.8      0             -1637129.5      1716.844       5112861.3    
     64900   300.68168     -1652569.1      0             -1637100.6      1727.2447      5113428      
     65000   300.05301     -1652551.1      0             -1637115        1592.3115      5112719.9    
     65100   299.68715     -1652565.1      0             -1637147.8      1194.5891      5111474.7    
     65200   300.04105     -1652602.7      0             -1637167.2      769.82731      5109473      
     65300   299.61574     -1652577.9      0             -1637164.3      163.89651      5107559.1    
     65400   300.01596     -1652587.8      0             -1637153.6     -402.92586      5105355.6    
     65500   299.78701     -1652560.6      0             -1637138.2     -878.98974      5103198.2    
     65600   299.30264     -1652506.3      0             -1637108.8     -1354.1565      5101555      
     65700   299.3617      -1652465.6      0             -1637065       -1664.182       5100260.3    
     65800   299.90607     -1652461.8      0             -1637033.3     -1779.99        5099806.7    
     65900   299.49928     -1652414.7      0             -1637007       -1737.5761      5100042.2    
     66000   300.3761      -1652459.7      0             -1637007       -1417.8695      5101064.3    
[...]
     81800   300.47168     -1652548.8      0             -1637091.2      1477.7365      5112095.9    
     81900   300.11503     -1652564.9      0             -1637125.6      1207.9681      5111570.3    
     82000   299.7451      -1652574.6      0             -1637154.3      1002.6952      5110236.9    
     82100   299.69475     -1652575.5      0             -1637157.8      461.00124      5108849.4    
     82200   299.79819     -1652570.4      0             -1637147.4      78.505051      5106980      
     82300   300.21579     -1652537.8      0             -1637093.3     -393.55882      5105226.3    
     82400   300.33987     -1652514        0             -1637063.1     -806.75608      5103602.4    
     82500   299.7536      -1652492.4      0             -1637071.7     -1267.6193      5102100.2    
     82600   299.58858     -1652484.9      0             -1637072.7     -1396.3239      5101048.7    
     82700   300.30481     -1652480.7      0             -1637031.7     -1504.5839      5100778.2    
     82800   300.51592     -1652459.4      0             -1636999.5     -1461.9748      5101412.6    
     82900   300.16275     -1652459.7      0             -1637017.9     -1071.7984      5102027.3    
     83000   300.79708     -1652532.8      0             -1637058.4     -872.23086      5103543.9    
     83100   299.9919      -1652516.6      0             -1637083.6     -394.27864      5105022.6    
     83200   300.00364     -1652550.8      0             -1637117.2      161.41031      5106781.6    
     83300   299.97051     -1652578.4      0             -1637146.6      461.18376      5108727.4    
     83400   299.55277     -1652569.7      0             -1637159.3      1037.132       5110087.7    
     83500   299.53666     -1652564.4      0             -1637154.9      1246.1092      5111509      
     83600   300.23293     -1652544.5      0             -1637099.1      1419.7999      5112013      
     83700   300.68668     -1652548.7      0             -1637079.9      1376.2432      5112037.9    
     83800   299.69875     -1652529.6      0             -1637111.7      1246.9532      5110995.8    
     83900   300.33099     -1652595.2      0             -1637144.7      838.094        5110042.5    
     84000   300.02828     -1652590.2      0             -1637155.4      487.51407      5108172.1    
     84100   299.38197     -1652552        0             -1637150.4      13.779098      5106580.6    
     84200   299.82038     -1652527        0             -1637102.9     -518.95695      5104692.8    
     84300   300.06596     -1652504.4      0             -1637067.6     -904.31527      5103187.2    
     84400   300.44781     -1652521.6      0             -1637065.1     -1263.2033      5101751.5    
     84500   299.55288     -1652462.6      0             -1637052.2     -1494.9058      5101112.9    
     84600   299.95546     -1652437.1      0             -1637006       -1422.4002      5101000.4    
     84700   300.66398     -1652456.8      0             -1636989.2     -1351.151       5101621      
     84800   300.54402     -1652481.1      0             -1637019.8     -1116.4047      5102576      
     84900   299.8141      -1652472.9      0             -1637049       -657.47532      5103726.2    
     85000   300.03759     -1652523.5      0             -1637088.1     -332.78991      5105558.3    
     85100   299.79054     -1652550        0             -1637127.4      233.9369       5107200.7    
     85200   299.47958     -1652559.4      0             -1637152.8      673.49243      5109083      
     85300   299.7331      -1652584.4      0             -1637164.8      1014.9338      5110495.2    
     85400   299.83135     -1652576.4      0             -1637151.7      1264.9469      5111699.1    
     85500   300.27393     -1652544.3      0             -1637096.8      1477.4872      5111870.8    
     85600   300.59295     -1652558.3      0             -1637094.4      1234.2826      5111915.1    
     85700   300.11446     -1652566.8      0             -1637127.5      1206.2725      5110659.7    
     85800   299.60201     -1652564.2      0             -1637151.3      787.18024      5109721.8    
     85900   299.4486      -1652557.7      0             -1637152.7      373.56775      5107904.1    
     86000   299.68109     -1652560.1      0             -1637143.1     -82.86246       5106149.7    
     86100   299.86265     -1652531.7      0             -1637105.4     -588.76565      5104268.2    
     86200   299.92914     -1652490.2      0             -1637060.5     -1082.8543      5102919      
     86300   300.69679     -1652529.3      0             -1637060.1     -1261.9437      5101575.7    
     86400   299.50489     -1652460.6      0             -1637052.7     -1480.3059      5101112.6    
     86500   300.50884     -1652489.8      0             -1637030.3     -1482.7281      5101271.9    
     86600   300.6265      -1652457.5      0             -1636991.9     -1212.4244      5101723.9    
     86700   300.05271     -1652442.2      0             -1637006.1     -1074.3987      5102952.4    
     86800   300.21981     -1652515.3      0             -1637070.6     -627.18665      5104060.8    
     86900   300.22797     -1652549.7      0             -1637104.6     -148.90263      5105831.2    
     87000   299.96803     -1652575.3      0             -1637143.6      308.82851      5107682.7    
     87100   300.16316     -1652608.8      0             -1637167        713.24773      5109550.2    
     87200   300.05385     -1652605.5      0             -1637169.3      1181.8354      5110454.7    
     87300   299.89274     -1652554.6      0             -1637126.7      1222.8685      5111857.7    
     87400   300.43759     -1652549.9      0             -1637094        1380.0062      5111652.8    
     87500   300.71339     -1652578.5      0             -1637108.4      1265.3394      5111701.4    
     87600   299.94163     -1652563.4      0             -1637133        1055.3926      5110374      
     87700   300.16553     -1652589.9      0             -1637148        580.33321      5109538.5    
     87800   299.89163     -1652575.3      0             -1637147.5      381.14384      5107186.2    
     87900   299.72215     -1652559.1      0             -1637140       -339.27998      5106054.3    
     88000   300.14899     -1652542.6      0             -1637101.6     -585.7869       5103676.6    
     88100   300.40148     -1652510.4      0             -1637056.3     -1076.0348      5102840.7    
     88200   299.86883     -1652481.5      0             -1637054.8     -1324.4371      5101469.3    
     88300   299.80153     -1652476.2      0             -1637053.1     -1417.8651      5101382.6    
     88400   300.09898     -1652472        0             -1637033.5     -1339.6128      5101022.5    
     88500   301.25987     -1652500.7      0             -1637002.5     -1392.2948      5102302.2    
     88600   300.96412     -1652495.3      0             -1637012.3     -840.62933      5102793.6    
     88700   300.42338     -1652530        0             -1637074.8     -652.43494      5104703.9    
     88800   300.22507     -1652553.3      0             -1637108.4     -61.768809      5106158.4    
     88900   300.13711     -1652586        0             -1637145.5      370.66677      5108169.6    
     89000   299.48978     -1652573.5      0             -1637166.3      849.32462      5109584.5    
     89100   300.18587     -1652610.7      0             -1637167.8      1064.6533      5110931.6    
     89200   300.70046     -1652592.2      0             -1637122.8      1353.604       5111604.1    
     89300   300.22935     -1652538.3      0             -1637093.2      1356.1708      5111747      
     89400   299.8974      -1652538        0             -1637109.9      1175.1361      5111504.1    
     89500   299.86386     -1652564.8      0             -1637138.4      1060.7514      5110116.7    
     89600   299.90394     -1652578.8      0             -1637150.4      548.39742      5109007.3    
     89700   299.92441     -1652577.2      0             -1637147.7      84.17556       5107057.8    
     89800   299.82747     -1652559.5      0             -1637135       -314.75472      5105294.3    
     89900   299.9664      -1652533.8      0             -1637102.2     -786.8133       5103711      
     90000   300.32399     -1652505.7      0             -1637055.6     -1133.4991      5102467.7    
     90100   300.21086     -1652495.5      0             -1637051.3     -1304.4432      5101602.6    
     90200   299.64301     -1652461.5      0             -1637046.5     -1423.4039      5101144.4    
     90300   300.35714     -1652488.7      0             -1637037       -1427.5274      5101639.9    
     90400   300.491       -1652486.3      0             -1637027.7     -1065.9244      5101953.4    
     90500   299.99449     -1652492.6      0             -1637059.5     -921.41385      5103553.7    
     90600   300.12826     -1652547.6      0             -1637107.6     -385.99341      5104876.2    
     90700   300.24652     -1652573.4      0             -1637127.3      74.178253      5106719.1    
     90800   299.37525     -1652547.1      0             -1637145.8      418.09987      5108470      
     90900   299.67558     -1652588.2      0             -1637171.5      934.61827      5109821.9    
     91000   298.98321     -1652586.5      0             -1637205.5      1129.2703      5110996.1    
     91100   299.21754     -1652600.8      0             -1637207.7      1352.4076      5111436.8    
     91200   300.54944     -1652610.3      0             -1637148.7      1236.3621      5111759.7    
     91300   300.31272     -1652575.5      0             -1637126        1253.8796      5110906.3    
     91400   300.3624      -1652575.1      0             -1637123.1      812.92295      5110214.4    
     91500   299.71506     -1652560.9      0             -1637142.1      532.52757      5108140      
     91600   299.56241     -1652590.1      0             -1637179.3     -62.091485      5106882.3    
     91700   299.88244     -1652600.2      0             -1637172.8     -423.36317      5104628.1    
     91800   299.85621     -1652534.3      0             -1637108.3     -944.43795      5103790.7    
     91900   299.75889     -1652504.7      0             -1637083.7     -1038.2896      5101872.3    
     92000   299.88485     -1652478.3      0             -1637050.8     -1486.4659      5102000.3    
     92100   300.31576     -1652471.6      0             -1637022       -1265.0346      5100853.1    
     92200   299.58145     -1652426.9      0             -1637015       -1403.0249      5102107.5    
     92300   299.82132     -1652484.9      0             -1637060.7     -1009.6603      5102095.2    
     92400   299.78096     -1652521.6      0             -1637099.5     -745.31116      5104007.5    
     92500   300.34795     -1652561        0             -1637109.8     -274.78814      5105183.1    
     92600   300.06918     -1652567.3      0             -1637130.3      65.730713      5107411.9    
     92700   300.13387     -1652609.1      0             -1637168.8      646.36826      5108455.7    
     92800   299.29573     -1652588.3      0             -1637191.2      915.46399      5110298      
     92900   299.86716     -1652573.4      0             -1637146.8      1222.6953      5110968.4    
     93000   300.19086     -1652547.7      0             -1637104.5      1266.6308      5111869.7    
     93100   300.35418     -1652566.4      0             -1637114.8      1315.6767      5111342.2    
     93200   300.0709      -1652583.7      0             -1637146.7      1028.385       5110969.8    
     93300   299.93154     -1652599.9      0             -1637170        856.03775      5109317.1    
     93400   299.8254      -1652588.7      0             -1637164.3      307.77207      5108177.8    
     93500   300.37962     -1652555.5      0             -1637102.6     -69.375325      5106114.5    
     93600   299.71894     -1652506.5      0             -1637087.5     -512.12777      5104686.7    
     93700   299.41582     -1652496.9      0             -1637093.6     -949.57095      5103225.7    
     93800   299.35272     -1652489.7      0             -1637089.6     -1200.2116      5102071.5    
     93900   299.91817     -1652466        0             -1637036.8     -1378.5768      5101551      
     94000   300.33582     -1652465.8      0             -1637015.2     -1355.4308      5101436.8    
     94100   300.36444     -1652479.4      0             -1637027.2     -1245.9531      5101931.2    
     94200   299.81544     -1652491.2      0             -1637067.3     -1008.7112      5102849.5    
     94300   300.29055     -1652540.9      0             -1637092.6     -619.10552      5104226.7    
     94400   300.12322     -1652543.4      0             -1637103.7     -176.58216      5105872.4    
     94500   300.09704     -1652567.8      0             -1637129.4      264.11814      5107635.9    
     94600   300.1542      -1652601.6      0             -1637160.2      673.28104      5109040.2    
     94700   299.6646      -1652586.8      0             -1637170.6      983.90605      5110400.7    
     94800   300.0624      -1652560.7      0             -1637124.1      1249.5837      5111138.3    
     94900   300.66621     -1652551.9      0             -1637084.2      1248.9161      5111962.9    
     95000   300.64395     -1652575.1      0             -1637108.5      1315.1978      5111084.7    
     95100   299.851       -1652573.5      0             -1637147.7      910.77547      5110644      
     95200   299.57568     -1652573.8      0             -1637162.3      731.01469      5108875.7    
     95300   300.45275     -1652614        0             -1637157.3      190.66181      5107741.6    
     95400   300.20701     -1652545.8      0             -1637101.7     -146.5632       5105610.8    
     95500   299.77103     -1652499.9      0             -1637078.3     -658.74596      5104470.3    
     95600   300.09951     -1652521.4      0             -1637082.9     -926.64578      5102682      
     95700   300.21626     -1652527        0             -1637082.4     -1302.0354      5102185.4    
     95800   299.8531      -1652458.2      0             -1637032.4     -1260.2928      5101141.6    
     95900   300.38208     -1652457.4      0             -1637004.4     -1452.0586      5101893.4    
     96000   300.43966     -1652479.8      0             -1637023.8     -1077.9833      5101706.6    
     96100   299.68509     -1652481.8      0             -1637064.6     -956.41192      5103706.5    
     96200   300.03636     -1652522        0             -1637086.7     -395.41169      5104148.8    
     96300   300.19616     -1652557        0             -1637113.5     -228.618        5106828.1    
     96400   300.50592     -1652600.6      0             -1637141.1      535.08915      5107341.6    
     96500   299.73106     -1652576.4      0             -1637156.8      574.95801      5110015.9    
     96600   299.87954     -1652583        0             -1637155.8      1218.2056      5109971.2    
     96700   299.39776     -1652547.3      0             -1637144.9      1119.7734      5111833.5    
     96800   299.82873     -1652564.8      0             -1637140.2      1376.1563      5111130.6    
     96900   299.86982     -1652560        0             -1637133.3      1079.5754      5111473.8    
     97000   300.01018     -1652558.4      0             -1637124.4      988.88589      5109805.9    
     97100   300.23712     -1652574.1      0             -1637128.6      460.86012      5109001.1    
     97200   299.8218      -1652581.9      0             -1637157.7      186.77085      5106918.3    
     97300   299.18227     -1652567.9      0             -1637176.6     -368.51949      5105589.7    
     97400   299.62799     -1652548.8      0             -1637134.5     -688.38483      5103791.2    
     97500   299.63051     -1652507.8      0             -1637093.4     -1090.8647      5102822.9    
     97600   299.88857     -1652494.5      0             -1637066.9     -1196.5106      5101686.3    
     97700   300.11786     -1652476.5      0             -1637037       -1403.6787      5101596.9    
     97800   300.36419     -1652470.7      0             -1637018.5     -1286.1379      5101653      
     97900   300.17383     -1652478.6      0             -1637036.2     -1140.5692      5102470.9    
     98000   299.78043     -1652520.1      0             -1637098       -784.7373       5103512.9    
     98100   299.60935     -1652523.5      0             -1637110.2     -419.37005      5105034.2    
     98200   299.69454     -1652539.6      0             -1637121.9      25.118288      5106681.2    
     98300   299.42223     -1652553.2      0             -1637149.5      386.77814      5108153.6    
     98400   299.82333     -1652610.2      0             -1637185.9      815.51668      5109658.1    
     98500   299.7997      -1652613.5      0             -1637190.4      1128.1606      5110596.7    
     98600   299.66154     -1652541.6      0             -1637125.6      1252.5188      5111429.8    
     98700   300.14721     -1652548.4      0             -1637107.5      1264.6969      5111347.5    
     98800   300.18527     -1652562.1      0             -1637119.2      1036.7536      5111006.4    
     98900   299.67178     -1652571.3      0             -1637154.8      855.10219      5109569.4    
     99000   299.90186     -1652603.4      0             -1637175.1      382.09252      5108454.8    
     99100   300.29772     -1652602.3      0             -1637153.6      65.045653      5106585.4    
     99200   300.42631     -1652546.7      0             -1637091.4     -510.20091      5105451.6    
     99300   300.54017     -1652549.2      0             -1637088.1     -732.55676      5103528.8    
     99400   299.51859     -1652495.9      0             -1637087.3     -1132.1043      5102661      
     99500   299.92077     -1652496        0             -1637066.7     -1265.4088      5101614.6    
     99600   300.23286     -1652470.4      0             -1637025       -1361.8778      5101799.3    
     99700   300.20838     -1652461.3      0             -1637017.2     -1188.5262      5101799      
     99800   300.39606     -1652496.4      0             -1637042.6     -1052.5008      5102981.2    
     99900   300.09342     -1652505.7      0             -1637067.5     -640.83429      5103772.8    
    100000   300.51343     -1652548.6      0             -1637088.8     -399.62418      5105787.7    
Loop time of 4460.69 on 6 procs for 100000 steps with 397994 atoms

Performance: 19.369 ns/day, 1.239 hours/ns, 22.418 timesteps/s
99.8% CPU use with 6 MPI tasks x 1 OpenMP threads

MPI task timing breakdown:
Section |  min time  |  avg time  |  max time  |%varavg| %total
---------------------------------------------------------------
Pair    | 2329       | 2799.6     | 3129.4     | 516.2 | 62.76
Neigh   | 5.6178     | 6.2886     | 6.6847     |  18.7 |  0.14
Comm    | 163.2      | 193.1      | 245.47     | 231.8 |  4.33
Output  | 10.777     | 10.825     | 10.862     |   0.8 |  0.24
Modify  | 1082.6     | 1385.1     | 1823.7     | 703.0 | 31.05
Other   |            | 65.76      |            |       |  1.47

Nlocal:        66332.3 ave       68631 max       62280 min
Histogram: 2 0 0 0 0 0 0 0 1 3
Nghost:        35282.8 ave       39059 max       29854 min
Histogram: 2 0 0 0 0 0 0 1 1 2
Neighs:              0 ave           0 max           0 min
Histogram: 6 0 0 0 0 0 0 0 0 0

Total # of neighbors = -6
Ave neighs/atom = -1.5075604e-05
Neighbor list builds = 8188
Dangerous builds = 1948
write_restart bilayer-nial09-thermalised.init
System init for write_restart ...
write_data bilayer-nial09-thermalised.data
System init for write_data ...

Total wall time: 1:14:23
