LAMMPS (29 Sep 2021)
  using 1 OpenMP thread(s) per MPI task
Reading restart file ...
  restart file = 29 Sep 2021, LAMMPS = 29 Sep 2021
  restoring atom style atomic from restart
  orthogonal box = (-0.39866578 -0.35823471 0.0000000) to (101.47133 101.43090 592.43100)
  3 by 2 by 16 MPI processor grid
  pair style hybrid/overlay stores no restart info
  433844 atoms
  read_restart CPU = 0.177 seconds
Resetting global fix info from restart file:
  fix style: npt, fix ID: 2

CITE-CITE-CITE-CITE-CITE-CITE-CITE-CITE-CITE-CITE-CITE-CITE-CITE

Your simulation uses code contributions which should be cited:
- @article{cjiang2012
The log file lists these citations in BibTeX format.

CITE-CITE-CITE-CITE-CITE-CITE-CITE-CITE-CITE-CITE-CITE-CITE-CITE

All restart file global fix info was re-assigned
Unused restart file peratom fix info:
  fix style: STORE, fix ID: spatialbins_COMPUTE_STORE
Neighbor list info ...
  update every 1 steps, delay 10 steps, check yes
  max neighbors/atom: 2000, page size: 100000
  master list distance cutoff = 8.28721
  ghost atom cutoff = 8.28721
  binsize = 4.143605, bins = 25 25 143
  3 neighbor lists, perpetual/occasional/extra = 3 0 0
  (1) pair eam/alloy, perpetual, skip from (3)
      attributes: half, newton on
      pair build: skip
      stencil: none
      bin: none
  (2) pair edip/multi, perpetual
      attributes: full, newton on
      pair build: full/bin/atomonly
      stencil: full/bin/3d
      bin: standard
  (3) neighbor class addition, perpetual, half/full from (2)
      attributes: half, newton on
      pair build: halffull/newton
      stencil: none
      bin: none
Setting up Verlet run ...
  Unit style    : metal
  Current step  : 11000349
  Time step     : 0.0001
Per MPI rank memory allocation (min/avg/max) = 4.950 | 11.79 | 17.62 Mbytes
Step Time Temp PotEng E_pair TotEng Press Volume Lx Ly Lz CPULeft 
11000349            0     300.1482   -1848982.7   -1848982.7   -1832150.8   -42.290229    6143070.8       101.87    101.78914      592.431            0 
11010000       0.9651    300.07731     -1848997     -1848997   -1832169.1   -62.620829      6142855    101.86409    101.79147      592.431    30245.315 
11020000       1.9651    300.20435   -1848989.6   -1848989.6   -1832154.5   -104.41433    6142227.3    101.86687    101.77829      592.431    29980.791 
11030000       2.9651    299.80501   -1849005.2   -1849005.2   -1832192.5   -331.94219    6142337.5    101.86394    101.78305      592.431     29679.52 
11040000       3.9651    299.96329     -1849012     -1849012   -1832190.4   -151.04842    6142461.1    101.86288    101.78615      592.431     29389.45 
11050000       4.9651    300.11704   -1848992.7   -1848992.7   -1832162.6    223.94781    6142844.7    101.86839      101.787      592.431    29086.667 
11060000       5.9651    299.97038     -1849046     -1849046     -1832224    270.44044    6141785.2     101.8549    101.78292      592.431    28776.865 
11070000       6.9651    300.05886   -1849027.6   -1849027.6   -1832200.7    290.19102      6141374    101.84812    101.78288      592.431    28477.107 
11080000       7.9651    300.01362   -1849044.7   -1849044.7   -1832220.4    252.24014    6141772.2    101.85795    101.77966      592.431    28170.652 
11090000       8.9651    299.98407     -1849034     -1849034   -1832211.3    -46.89504    6141922.7    101.85628    101.78382      592.431    27869.423 
11100000       9.9651    299.93878   -1849011.2   -1849011.2     -1832191    280.24964    6141837.5    101.85598    101.78272      592.431    27562.716 
11110000      10.9651    299.80158     -1849008     -1849008   -1832195.5   -275.81766    6142767.7    101.87458    101.77954      592.431    27258.706 
11120000      11.9651    299.83915   -1849020.1   -1849020.1   -1832205.6   -219.19307    6141591.4    101.85537    101.77925      592.431     26953.58 
11130000      12.9651    300.01313   -1849023.7   -1849023.7   -1832199.4    26.756575    6141429.8    101.85484     101.7771      592.431    26650.391 
11140000      13.9651    299.82407   -1848998.8   -1848998.8   -1832185.1     91.65139    6141174.2    101.84497    101.78272      592.431    26346.343 
11150000      14.9651    299.99709   -1849042.6   -1849042.6   -1832219.2   -39.603968    6141749.4    101.85675    101.78048      592.431    26043.455 
11160000      15.9651    299.89851   -1849045.1   -1849045.1   -1832227.2   -258.32206    6141935.1    101.86448    101.77583      592.431    25737.849 
11170000      16.9651    300.29956   -1849034.5   -1849034.5   -1832194.2   -68.061261    6140809.4    101.85371    101.76794      592.431     25432.55 
11180000      17.9651    299.77592   -1849026.4   -1849026.4   -1832215.4   -251.38665    6141316.5    101.86004    101.77002      592.431    25128.327 
11190000      18.9651    300.12825     -1848994     -1848994   -1832163.3   -356.63321    6141310.4    101.85588    101.77408      592.431    24824.051 
11200000      19.9651    299.99678   -1849015.7   -1849015.7   -1832192.3   -200.58038      6141180    101.85604    101.77175      592.431    24521.171 
11210000      20.9651    300.08987   -1848994.3   -1848994.3   -1832165.7   -467.07695      6141340    101.84862    101.78182      592.431    24215.999 
11220000      21.9651    300.46409   -1848995.4   -1848995.4   -1832145.8   -20.812622      6141801    101.85471    101.78337      592.431    23911.248 
11230000      22.9651    300.04542   -1849023.5   -1849023.5   -1832197.4   -227.40443    6142264.4    101.85995    101.78581      592.431    23605.757 
11240000      23.9651    300.05664     -1848980     -1848980   -1832153.2   -778.05505    6142556.5    101.86383    101.78678      592.431    23299.226 
11250000      24.9651    300.10677   -1849020.6   -1849020.6     -1832191    134.95031    6141951.3    101.86416    101.77642      592.431    22992.424 
11260000      25.9651    299.91705   -1848998.4   -1848998.4   -1832179.4   -90.627163    6141615.3    101.86458    101.77044      592.431    22688.036 
11270000      26.9651     299.8655   -1849020.4   -1849020.4   -1832204.4    337.62469    6141322.2    101.85173    101.77841      592.431    22382.827 
11280000      27.9651    300.09688   -1849030.6   -1849030.6   -1832201.6    215.39061    6141515.6    101.85427    101.77909      592.431    22076.979 
11290000      28.9651      300.108   -1849021.8   -1849021.8   -1832192.2    65.072054    6141384.8    101.84586    101.78532      592.431    21770.789 
11300000      29.9651    299.92135   -1849034.8   -1849034.8   -1832215.6   -461.85575    6143098.7    101.86938    101.79022      592.431    21465.259 
11310000      30.9651    299.71516   -1849032.2   -1849032.2   -1832224.6    5.2361882    6141995.7    101.86424    101.77708      592.431    21159.259 
11320000      31.9651    300.04917   -1849000.6   -1849000.6   -1832174.2   -219.86385    6142862.4     101.8659    101.78979      592.431    20853.177 
11330000      32.9651    299.88517   -1849004.3   -1849004.3   -1832187.1   -85.486592      6142416    101.86557    101.78271      592.431    20546.038 
11340000      33.9651    300.05937   -1849009.5   -1849009.5   -1832182.6    10.008882    6141531.3    101.84833    101.78528      592.431    20239.521 
11350000      34.9651    299.97227   -1849023.2   -1849023.2   -1832201.2    233.75425    6141776.6    101.85994    101.77775      592.431    19932.738 
11360000      35.9651     299.7371   -1849016.3   -1849016.3   -1832207.5    40.538154    6141881.3    101.85656    101.78286      592.431    19626.204 
11370000      36.9651    299.99677     -1849011     -1849011   -1832187.6    50.186239      6141252    101.85394    101.77504      592.431    19319.715 
11380000      37.9651    300.17363   -1848969.6   -1848969.6   -1832136.3   -352.65449      6142266     101.8647     101.7811      592.431    19013.332 
11390000      38.9651    299.85744   -1849015.3   -1849015.3   -1832199.7    41.044068    6141682.2    101.85582     101.7803      592.431    18707.079 
11400000      39.9651    299.82823   -1849000.9   -1849000.9     -1832187   -28.111323    6141784.7    101.85901    101.77881      592.431    18401.041 
11410000      40.9651    300.28495   -1849011.8   -1849011.8   -1832172.3    341.14029    6141107.6      101.855     101.7716      592.431    18094.702 
11420000      41.9651    299.66233   -1849026.1   -1849026.1   -1832221.4    255.49061    6141476.2     101.8593    101.77341      592.431    17787.776 
11430000      42.9651    299.82717   -1849022.5   -1849022.5   -1832208.6      73.5844    6141665.5    101.85347    101.78237      592.431    17481.098 
11440000      43.9651    299.74864   -1848975.6   -1848975.6   -1832166.1   -173.97634    6142061.4    101.85553    101.78687      592.431    17174.436 
11450000      44.9651    300.05968   -1848999.5   -1848999.5   -1832172.5    162.24786    6141128.8    101.85413    101.77281      592.431    16868.002 
11460000      45.9651    300.10359     -1849011     -1849011   -1832181.6      40.2913    6142205.9    101.86715    101.77766      592.431    16561.529 
11470000      46.9651    299.93613   -1849012.5   -1849012.5   -1832192.5    260.92651    6141125.9    101.85503    101.77187      592.431     16255.01 
11480000      47.9651    300.09977   -1849021.8   -1849021.8   -1832192.6    136.84741    6141766.7     101.8542    101.78331      592.431    15948.536 
11490000      48.9651    299.82938   -1849018.4   -1849018.4   -1832204.3   -411.36556    6141459.8    101.86017    101.77227      592.431    15642.509 
11500000      49.9651    300.05622   -1848980.5   -1848980.5   -1832153.8    331.58786    6140875.3    101.85079    101.77195      592.431    15335.686 
11510000      50.9651    299.95528   -1848994.9   -1848994.9   -1832173.8   -85.217348    6141997.3    101.85704    101.78431      592.431    15029.168 
11520000      51.9651    300.09876   -1849015.2   -1849015.2   -1832186.1    -25.46307      6142275    101.86051    101.78544      592.431    14722.762 
11530000      52.9651    300.16536   -1849024.9   -1849024.9   -1832192.1    164.22237    6142779.3     101.8671     101.7872      592.431    14415.906 
11540000      53.9651    300.19331   -1848988.1   -1848988.1   -1832153.7    21.575455      6141830     101.8571    101.78147      592.431    14109.336 
11550000      54.9651    300.21679   -1848974.1   -1848974.1   -1832138.3   -228.15393    6142232.1    101.86178    101.78346      592.431    13803.027 
11560000      55.9651    299.94576   -1849007.9   -1849007.9   -1832187.4     90.34835    6141995.6    101.86477    101.77655      592.431    13496.574 
11570000      56.9651    300.11658   -1849018.2   -1849018.2     -1832188   -215.80468    6141623.3    101.85112    101.78402      592.431    13190.095 
11580000      57.9651    300.26297   -1849024.3   -1849024.3     -1832186    307.46686    6140884.1    101.84509    101.77779      592.431    12883.968 
11590000      58.9651    299.84214   -1849024.6   -1849024.6   -1832209.9    123.99262    6140907.7    101.84898     101.7743      592.431    12577.607 
11600000      59.9651    299.90114   -1849014.7   -1849014.7   -1832196.7   -10.555363    6141635.1    101.86536    101.76998      592.431    12271.279 
11610000      60.9651    299.91369   -1849023.9   -1849023.9   -1832205.2    408.04185    6141359.2    101.85842    101.77235      592.431    11964.961 
11620000      61.9651    299.92533   -1849022.6   -1849022.6   -1832203.2    47.076371    6141501.6    101.86091    101.77222      592.431    11658.187 
11630000      62.9651    300.35159   -1849002.7   -1849002.7   -1832159.4     163.3828    6140501.9    101.84972    101.76683      592.431    11351.719 
11640000      63.9651    300.02263   -1849017.4   -1849017.4   -1832192.5    31.677653    6141336.5    101.85872    101.77167      592.431     11045.36 
11650000      64.9651    299.91509     -1849026     -1849026   -1832207.1   -446.74829      6141589    101.86373    101.77085      592.431    10738.824 
11660000      65.9651    299.85952   -1849011.4   -1849011.4   -1832195.7    413.17619    6141174.6    101.85619    101.77152      592.431    10432.476 
11670000      66.9651    299.56214   -1849021.7   -1849021.7   -1832222.7   -254.17277    6141543.9    101.85909    101.77473      592.431     10126.07 
11680000      67.9651    299.89126   -1849008.6   -1849008.6   -1832191.1   -87.182145    6141488.2    101.84801    101.78489      592.431    9819.6522 
11690000      68.9651    300.21559   -1849031.2   -1849031.2   -1832195.6   -6.1531713    6140883.5    101.85263    101.77024      592.431    9513.2368 
11700000      69.9651     299.8747   -1849052.8   -1849052.8   -1832236.2    87.623817    6141931.7     101.8612    101.77905      592.431    9206.7313 
11710000      70.9651    300.21659   -1848994.2   -1848994.2   -1832158.5   -309.29133      6142221     101.8605    101.78455      592.431    8900.3524 
11720000      71.9651    299.85252   -1849009.4   -1849009.4   -1832194.1    36.797358    6141959.1    101.85754    101.78317      592.431    8593.8214 
11730000      72.9651    300.05349   -1848985.7   -1848985.7   -1832159.1    38.582621      6142087    101.85747    101.78536      592.431     8287.338 
11740000      73.9651    299.92681   -1849021.3   -1849021.3   -1832201.9    172.65456    6141703.4    101.85762    101.77885      592.431    7980.7726 
11750000      74.9651    299.97385     -1849019     -1849019   -1832196.9   -227.05403    6141904.6    101.86174    101.77806      592.431    7674.2496 
11760000      75.9651     299.8447   -1849024.2   -1849024.2   -1832209.3    88.439392    6142239.2    101.85847    101.78688      592.431    7367.7368 
11770000      76.9651    299.82452   -1849004.2   -1849004.2   -1832190.4    42.921427    6142061.5    101.85572    101.78668      592.431    7061.2069 
11780000      77.9651    300.14352   -1849001.1   -1849001.1   -1832169.5   -185.42367    6142475.1    101.86763    101.78164      592.431    6754.6374 
11790000      78.9651    299.91695   -1849020.2   -1849020.2   -1832201.3    16.631628    6141948.4    101.86963    101.77091      592.431    6448.0741 
11800000      79.9651    299.74648   -1849037.3   -1849037.3   -1832227.9    279.33698    6142692.2    101.86773    101.78514      592.431    6141.5025 
11810000      80.9651    300.02672   -1849058.5   -1849058.5   -1832233.4   -88.053893    6141668.9    101.85075    101.78514      592.431      5835.02 
11820000      81.9651    299.98024   -1849000.6   -1849000.6   -1832178.1    18.211813    6142612.9    101.86547    101.78608      592.431    5528.4653 
11830000      82.9651    300.13154   -1849000.7   -1849000.7   -1832169.7    -159.6654    6141927.6    101.86326    101.77693      592.431    5221.8714 
11840000      83.9651    300.38493   -1849027.7   -1849027.7   -1832182.5   -100.11603    6142012.3    101.86777    101.77383      592.431    4915.3109 
11850000      84.9651     299.9669   -1848978.2   -1848978.2   -1832156.5   -448.53719    6141971.9    101.86102     101.7799      592.431    4608.7961 
11860000      85.9651    299.85243     -1849032     -1849032   -1832216.7    94.238366    6141913.5    101.86112    101.77883      592.431    4302.2643 
11870000      86.9651    299.76548   -1848998.3   -1848998.3   -1832187.9   -117.81558    6141696.7    101.85501    101.78134      592.431    3995.7339 
11880000      87.9651    300.05914   -1849001.2   -1849001.2   -1832174.3    85.864879    6141673.2    101.86485    101.77113      592.431    3689.2426 
11890000      88.9651    300.02435   -1848978.1   -1848978.1   -1832153.2    68.119457    6141779.6    101.85721    101.78052      592.431    3382.7047 
11900000      89.9651    299.91236   -1848998.5   -1848998.5   -1832179.8   -264.61124    6142605.6    101.87503     101.7764      592.431    3076.1939 
11910000      90.9651    300.13503     -1849015     -1849015   -1832183.8   -267.83546      6142333    101.86378    101.78313      592.431    2769.6683 
11920000      91.9651    299.83871     -1849014     -1849014   -1832199.5   -279.14415    6141114.5    101.84656    101.78014      592.431    2463.1365 
11930000      92.9651    300.15034   -1848994.1   -1848994.1   -1832162.1   -19.267845    6141427.7    101.84525    101.78664      592.431    2156.5809 
11940000      93.9651    299.92969   -1849025.6   -1849025.6     -1832206     41.64075    6141760.8    101.86644    101.77099      592.431     1850.048 
11950000      94.9651    300.21142   -1849016.1   -1849016.1   -1832180.6   -266.24423    6142070.2    101.85731    101.78524      592.431    1543.4989 
11960000      95.9651    300.13702   -1848989.1   -1848989.1   -1832157.8   -58.563825    6142233.5     101.8617    101.78355      592.431    1236.9308 
11970000      96.9651    299.96696   -1849055.5   -1849055.5   -1832233.8    14.587599    6141376.7    101.85123    101.77982      592.431    930.37996 
11980000      97.9651    300.25554   -1849002.2   -1849002.2   -1832164.3    44.051195    6141807.3    101.85686    101.78134      592.431    623.81868 
11990000      98.9651    299.78216   -1849025.1   -1849025.1   -1832213.8   -159.85424    6142108.2    101.86102    101.78216      592.431    317.26175 
12000000      99.9651    299.66687   -1849043.1   -1849043.1   -1832238.2    26.031391    6141967.1    101.85901    101.78183      592.431    10.699083 
12000349          100    300.09613   -1848992.5   -1848992.5   -1832163.5   -193.75952    6142585.9    101.86079    101.79031      592.431            0 
Loop time of 30656.4 on 96 procs for 1000000 steps with 433844 atoms

Performance: 0.282 ns/day, 85.157 hours/ns, 32.620 timesteps/s
100.0% CPU use with 96 MPI tasks x 1 OpenMP threads

MPI task timing breakdown:
Section |  min time  |  avg time  |  max time  |%varavg| %total
---------------------------------------------------------------
Pair    | 4879.7     | 19285      | 29633      |4579.3 | 62.91
Neigh   | 0.036843   | 24.526     | 35.741     | 212.2 |  0.08
Comm    | 393.9      | 6820.8     | 25096      |9164.9 | 22.25
Output  | 1.8947     | 1.8963     | 1.9131     |   0.2 |  0.01
Modify  | 483.92     | 4447       | 8023.8     |4293.6 | 14.51
Other   |            | 77.26      |            |       |  0.25

Nlocal:        4519.21 ave        6000 max           0 min
Histogram: 12 0 0 0 0 0 3 25 20 36
Nghost:        8493.52 ave       11167 max        2320 min
Histogram: 12 0 0 0 0 12 0 21 35 16
Neighs:         0.00000 ave           0 max           0 min
Histogram: 96 0 0 0 0 0 0 0 0 0
FullNghs:      863662.0 ave  1.2797e+06 max           0 min
Histogram: 12 0 0 0 0 20 15 13 12 24

Total # of neighbors = 82911544
Ave neighs/atom = 191.10912
Neighbor list builds = 1047
Dangerous builds = 0
System init for write_restart ...
System init for write_data ...
Total wall time: 8:30:57
