LAMMPS (29 Sep 2021)
  using 1 OpenMP thread(s) per MPI task
Reading data file ...
  orthogonal box = (-0.20845477 -0.21031445 0.0000000) to (101.53226 101.53412 619.83200)
  1 by 2 by 12 MPI processor grid
  reading atoms ...
  442392 atoms
  reading velocities ...
  442392 velocities
  read_data CPU = 4.682 seconds
221196 atoms in group g_left
221196 atoms in group g_right

CITE-CITE-CITE-CITE-CITE-CITE-CITE-CITE-CITE-CITE-CITE-CITE-CITE

Your simulation uses code contributions which should be cited:
- GPU package (short-range, long-range and three-body potentials):
The log file lists these citations in BibTeX format.

CITE-CITE-CITE-CITE-CITE-CITE-CITE-CITE-CITE-CITE-CITE-CITE-CITE


--------------------------------------------------------------------------
- Using acceleration for eam/alloy:
-  with 12 proc(s) per device.
-  Horizontal vector operations: ENABLED
-  Shared memory system: No
--------------------------------------------------------------------------
Device 0: Tesla V100-SXM2-32GB, 80 CUs, 28/32 GB, 1.5 GHZ (Mixed Precision)
Device 1: Tesla V100-SXM2-32GB, 80 CUs, 1.5 GHZ (Mixed Precision)
--------------------------------------------------------------------------

Initializing Device and compiling on process 0...Done.
Initializing Devices 0-1 on core 0...Done.
Initializing Devices 0-1 on core 1...Done.
Initializing Devices 0-1 on core 2...Done.
Initializing Devices 0-1 on core 3...Done.
Initializing Devices 0-1 on core 4...Done.
Initializing Devices 0-1 on core 5...Done.
Initializing Devices 0-1 on core 6...Done.
Initializing Devices 0-1 on core 7...Done.
Initializing Devices 0-1 on core 8...Done.
Initializing Devices 0-1 on core 9...Done.
Initializing Devices 0-1 on core 10...Done.
Initializing Devices 0-1 on core 11...Done.

Setting up Verlet run ...
  Unit style    : metal
  Current step  : 0
  Time step     : 0.00025
Per MPI rank memory allocation (min/avg/max) = 8.377 | 10.98 | 11.78 Mbytes
Step Time Temp Press PotEng KinEng TotEng Volume 
       0            0    7176.6951    65498.906   -1713191.5    410388.72   -1302802.8    6416222.9 
     100        0.025    7176.3277     65582.78   -1713204.5    410367.71   -1302836.8    6405871.3 
     200         0.05    7176.7036    65688.559   -1713196.7    410389.21   -1302807.5    6395519.8 
     300        0.075    7177.2031    65786.912   -1713194.2    410417.77   -1302776.4    6385168.2 
     400          0.1    7176.5178    65903.134   -1713164.2    410378.59   -1302785.6    6374816.7 
     500        0.125    7176.9288    65996.902   -1713198.8    410402.09   -1302796.7    6364465.1 
     600         0.15    7176.9494    66106.246   -1713195.9    410403.26   -1302792.6    6354113.6 
     700        0.175    7176.9125    66219.067   -1713192.1    410401.15     -1302791      6343762 
     800          0.2    7177.3244    66330.392   -1713223.4    410424.71   -1302798.7    6333410.5 
     900        0.225    7176.6398    66441.456   -1713188.3    410385.56   -1302802.8    6323058.9 
    1000         0.25    7176.3235    66543.135   -1713179.2    410367.47   -1302811.7    6312707.4 
    1100        0.275     7176.323    66632.592   -1713194.4    410367.45   -1302826.9    6302355.8 
    1200          0.3    7176.6024    66735.013   -1713209.7    410383.42   -1302826.3    6292004.3 
    1300        0.325    7176.6012    66848.536   -1713193.5    410383.35   -1302810.2    6281652.7 
    1400         0.35    7176.3121    66960.649   -1713186.8    410366.82     -1302820    6271301.2 
    1500        0.375    7176.2206    67073.357   -1713191.7    410361.59   -1302830.1    6260949.6 
    1600          0.4    7176.7454    67173.174   -1713200.6     410391.6     -1302809    6250598.1 
    1700        0.425    7177.0098    67273.007   -1713195.4    410406.72   -1302788.7    6240246.5 
    1800         0.45    7176.7688    67383.491   -1713193.9    410392.94   -1302800.9      6229895 
    1900        0.475      7176.34    67487.693   -1713187.7    410368.42   -1302819.3    6219543.4 
    2000          0.5    7176.6556    67571.651   -1713201.8    410386.46   -1302815.3    6209191.9 
    2100        0.525     7176.613    67655.126     -1713201    410384.03   -1302816.9    6198840.3 
    2200         0.55    7176.7182    67715.223   -1713225.8    410390.05   -1302835.8    6188488.7 
    2300        0.575    7181.7258     67724.25   -1713516.3     410676.4   -1302839.9    6178137.2 
    2400          0.6    7196.7866    67657.307   -1714360.6    411537.63     -1302823    6167785.6 
    2500        0.625    7189.4486    68923.136     -1713932    411118.01   -1302813.9    6157434.1 
    2600         0.65    7173.1618    70925.191   -1713007.6    410186.67   -1302820.9    6147082.5 
    2700        0.675    7135.0105     73178.17     -1710837    408005.05     -1302832      6136731 
    2800          0.7    7109.5257    75775.972   -1709378.1    406547.74   -1302830.4    6126379.4 
    2900        0.725    7083.0259     78228.06   -1707853.5    405032.39   -1302821.1    6116027.9 
    3000         0.75    7045.4073    80371.846   -1705701.7    402881.22   -1302820.5    6105676.3 
    3100        0.775    7019.9829    82959.655   -1704251.8    401427.37   -1302824.4    6095324.8 
    3200          0.8    6985.6653    85317.809   -1702285.2    399464.97   -1302820.3    6084973.2 
    3300        0.825    6959.6659    87739.045   -1700785.1    397978.23   -1302806.9    6074621.7 
    3400         0.85       6928.6     90348.38   -1699006.2    396201.77   -1302804.5    6064270.1 
    3500        0.875    6897.3826    92894.882   -1697229.1    394416.65   -1302812.4    6053918.6 
    3600          0.9    6871.4128    95294.151   -1695741.5    392931.61   -1302809.9      6043567 
    3700        0.925    6840.0293    97711.311   -1693928.8    391136.98   -1302791.8    6033215.5 
    3800         0.95    6809.5696    100192.62   -1692177.6    389395.19   -1302782.5    6022863.9 
    3900        0.975    6781.5414    102653.31   -1690557.1    387792.44   -1302764.7    6012512.4 
    4000            1    6751.2475    105128.16   -1688795.6    386060.13   -1302735.5    6002160.8 
    4100        1.025     6721.329    107686.25   -1687079.8    384349.28   -1302730.5    5991809.3 
    4200         1.05    6692.5698    110255.77   -1685466.2    382704.73   -1302761.5    5981457.7 
    4300        1.075    6659.4803    112737.09   -1683597.2    380812.56   -1302784.6    5971106.2 
    4400          1.1    6631.6344    115327.24     -1681993    379220.23   -1302772.8    5960754.6 
    4500        1.125    6603.2034    117913.69   -1680359.1    377594.44   -1302764.7    5950403.1 
    4600         1.15    6570.5886    120519.08   -1678494.6    375729.42   -1302765.2    5940051.5 
    4700        1.175    6543.0347    123149.49   -1676908.5    374153.79   -1302754.7      5929700 
    4800          1.2    6512.1892    125747.98   -1675125.2    372389.93   -1302735.3    5919348.4 
    4900        1.225    6482.8411     128305.7   -1673439.6     370711.7   -1302727.9    5908996.9 
    5000         1.25     6452.843    130893.59   -1671728.1    368996.31   -1302731.8    5898645.3 
    5100        1.275    6424.3148    133526.29   -1670093.5    367364.96   -1302728.5    5888293.8 
    5200          1.3    6394.7415     136080.2   -1668405.1    365673.86   -1302731.2    5877942.2 
    5300        1.325    6364.2405    138708.55   -1666671.3     363929.7   -1302741.6    5867590.7 
    5400         1.35    6321.2929    141802.09     -1664214    361473.81   -1302740.2    5857239.1 
    5500        1.375    6285.0597    144728.78   -1662126.1    359401.87   -1302724.2    5846887.5 
    5600          1.4    6229.8877    147082.14   -1658967.7    356246.94   -1302720.7      5836536 
    5700        1.425    6189.8844    150120.07   -1656676.9    353959.41   -1302717.5    5826184.4 
    5800         1.45    6150.7797    153169.66     -1654417    351723.27   -1302693.7    5815832.9 
    5900        1.475    6100.0657    155898.56   -1651504.1    348823.26   -1302680.8    5805481.3 
    6000          1.5    6055.4149    158919.65   -1648962.8    346269.97   -1302692.8    5795129.8 
    6100        1.525    6011.2215    161824.85   -1646433.1    343742.83   -1302690.3    5784778.2 
    6200         1.55    5965.3607    164680.55   -1643796.9    341120.35   -1302676.5    5774426.7 
    6300        1.575    5923.2401    167902.95   -1641395.2    338711.75   -1302683.5    5764075.1 
    6400          1.6    5874.9603    170856.82   -1638629.1    335950.94   -1302678.1    5753723.6 
    6500        1.625    5832.4501    173836.36     -1636168    333520.06   -1302647.9      5743372 
    6600         1.65    5784.5921    177157.69   -1633427.5    330783.36   -1302644.2    5733020.5 
    6700        1.675    5738.6119    180301.11   -1630829.2    328154.06   -1302675.1    5722668.9 
    6800          1.7    5692.0946    183374.19   -1628174.9    325494.03   -1302680.9    5712317.4 
    6900        1.725    5649.9307    186636.71   -1625722.9    323082.95     -1302640    5701965.8 
    7000         1.75    5601.6277    189920.08   -1622932.3    320320.82   -1302611.5    5691614.3 
    7100        1.775    5554.9419    193386.75     -1620267    317651.16   -1302615.8    5681262.7 
    7200          1.8    5508.4432    196831.81   -1617619.3     314992.2   -1302627.1    5670911.2 
    7300        1.825    5463.1651    200235.04   -1615030.9    312403.04   -1302627.9    5660559.6 
    7400         1.85    5422.4797    203642.44   -1612700.2     310076.5   -1302623.7    5650208.1 
    7500        1.875    5385.1824    206816.25   -1610563.4    307943.71   -1302619.7    5639856.5 
    7600          1.9     5349.926    209800.71   -1608550.5    305927.63   -1302622.8      5629505 
    7700        1.925    5313.1572    213094.66   -1606451.3    303825.06   -1302626.3    5619153.4 
    7800         1.95    5282.5474    216009.03   -1604692.5    302074.68   -1302617.8    5608801.9 
    7900        1.975    5274.8133    217592.81     -1604243    301632.42   -1302610.5    5598450.3 
    8000            2    5261.5876    218635.06   -1603494.1    300876.13     -1302618    5588098.8 
    8100        2.025    5238.8874    220378.89   -1602210.2    299578.05   -1302632.2    5577747.2 
    8200         2.05    5236.3047    222239.68   -1602073.1    299430.36   -1302642.8    5567395.7 
    8300        2.075    5218.5904    224494.52   -1601065.8    298417.39   -1302648.4    5557044.1 
    8400          2.1    5199.9369    226619.63   -1600005.4    297350.72   -1302654.7    5546692.6 
    8500        2.125    5206.2603    228224.77   -1600375.6    297712.32   -1302663.3      5536341 
    8600         2.15    5173.6111     230214.3   -1598517.8    295845.32   -1302672.5    5525989.5 
    8700        2.175     5182.115    232112.66   -1599014.9     296331.6   -1302683.3    5515637.9 
    8800          2.2    5164.9913    234419.44   -1598041.2    295352.41   -1302688.8    5505286.3 
    8900        2.225    5146.2111    236948.91   -1596970.2    294278.49   -1302691.7    5494934.8 
    9000         2.25    5142.2143    239543.43   -1596747.7    294049.94   -1302697.7    5484583.2 
    9100        2.275    5111.1787    242286.31   -1594982.1    292275.21   -1302706.8    5474231.7 
    9200          2.3    5108.3881    245005.27   -1594829.2    292115.64   -1302713.6    5463880.1 
    9300        2.325    5080.1415    248074.46     -1593216     290500.4   -1302715.6    5453528.6 
    9400         2.35    5066.2825    250956.28   -1592432.1    289707.89   -1302724.2      5443177 
    9500        2.375    5049.5942    253674.32   -1591484.4    288753.59   -1302730.9    5432825.5 
    9600          2.4     5023.711       256544   -1590012.6    287273.51   -1302739.1    5422473.9 
    9700        2.425    5008.5478    259474.68   -1589153.9    286406.42   -1302747.5    5412122.4 
    9800         2.45    4979.9727    262600.77   -1587521.6    284772.39   -1302749.2    5401770.8 
    9900        2.475    4963.9158    265837.53   -1586603.3     283854.2   -1302749.1    5391419.3 
   10000          2.5    4935.9783     269104.7   -1585013.6    282256.64   -1302756.9    5381067.7 
   10100        2.525    4905.3345     272755.6   -1583275.5    280504.32   -1302771.2    5370716.2 
   10200         2.55    4870.7316    276531.64   -1581307.2     278525.6   -1302781.6    5360364.6 
   10300        2.575    4836.4088    280449.87   -1579333.1     276562.9   -1302770.2    5350013.1 
   10400          2.6    4799.5005    284279.53   -1577196.6    274452.35   -1302744.2    5339661.5 
   10500        2.625    4760.4576    288025.74   -1574950.4    272219.74   -1302730.6      5329310 
   10600         2.65    4726.2848    291891.54   -1573004.5    270265.62   -1302738.9    5318958.4 
   10700        2.675     4687.269    295963.01   -1570792.5    268034.57   -1302757.9    5308606.9 
   10800          2.7    4644.6071    300379.48   -1568362.7       265595   -1302767.7    5298255.3 
   10900        2.725    4589.1141    305416.17   -1565187.2    262421.72   -1302765.5    5287903.8 
   11000         2.75    4532.8379    310536.94   -1561954.7    259203.65   -1302751.1    5277552.2 
   11100        2.775    4475.5975    316026.29   -1558670.3    255930.44   -1302739.9    5267200.7 
   11200          2.8    4413.1924    321625.23   -1555110.9     252361.9     -1302749    5256849.1 
   11300        2.825    4349.0607    327070.76   -1551457.2    248694.62   -1302762.6    5246497.6 
   11400         2.85    4287.1625    333032.49   -1547915.9    245155.07   -1302760.8      5236146 
   11500        2.875    4224.8943    339016.27   -1544344.5    241594.35   -1302750.1    5225794.5 
   11600          2.9    4162.7697    344437.75   -1540792.1    238041.85   -1302750.2    5215442.9 
   11700        2.925    4099.9145    349972.58   -1537198.9    234447.56   -1302751.3    5205091.4 
   11800         2.95    4041.4796    355481.76   -1533844.5    231106.05   -1302738.5    5194739.8 
   11900        2.975     3987.335    360137.97   -1530728.7    228009.87   -1302718.9    5184388.2 
   12000            3    3935.0792    364658.59   -1527724.8     225021.7   -1302703.1    5174036.7 
   12100        3.025    3881.8849    369183.16     -1524676    221979.86   -1302696.2    5163685.1 
   12200         3.05    3832.2548    373518.21   -1521841.4    219141.84   -1302699.6    5153333.6 
   12300        3.075     3785.408    377742.24   -1519165.3    216462.97   -1302702.3      5142982 
   12400          3.1    3744.6909    381691.24   -1516837.7    214134.62   -1302703.1    5132630.5 
   12500        3.125    3707.8552    385120.41   -1514744.6    212028.23   -1302716.3    5122278.9 
   12600         3.15    3673.0172     388687.7   -1512768.3    210036.07   -1302732.2    5111927.4 
   12700        3.175    3633.5967    392257.71   -1510510.8    207781.87   -1302728.9    5101575.8 
   12800          3.2     3594.404     395826.1   -1508253.7    205540.69     -1302713    5091224.3 
   12900        3.225     3559.228    399523.92   -1506244.8     203529.2   -1302715.6    5080872.7 
   13000         3.25    3526.2045    403071.18   -1504369.7     201640.8   -1302728.9    5070521.2 
   13100        3.275    3497.4779    406324.17   -1502725.6    199998.11   -1302727.5    5060169.6 
   13200          3.3    3466.7696    409361.96     -1500964     198242.1   -1302721.9    5049818.1 
   13300        3.325    3437.3991    412558.27   -1499295.5     196562.6   -1302732.9    5039466.5 
   13400         3.35    3411.9495    415827.53   -1497840.7     195107.3   -1302733.4      5029115 
   13500        3.375    3402.3164    418276.63   -1497267.1    194556.45   -1302710.7    5018763.4 
   13600          3.4    3395.9123    419857.85   -1496890.9    194190.23   -1302700.6    5008411.9 
   13700        3.425    3385.2368    421720.94   -1496291.1    193579.77   -1302711.3    4998060.3 
   13800         3.45     3380.847    423945.07   -1496033.3    193328.75   -1302704.6    4987708.8 
   13900        3.475    3376.1751    426351.43   -1495751.6    193061.59     -1302690    4977357.2 
   14000          3.5    3370.1144    428729.45   -1495414.2    192715.02   -1302699.1    4967005.7 
   14100        3.525    3375.0178    430782.95   -1495706.2    192995.41   -1302710.8    4956654.1 
   14200         3.55    3362.9516    432939.45   -1495022.9    192305.43   -1302717.5    4946302.6 
   14300        3.575    3371.8242       435100   -1495541.7    192812.79   -1302728.9      4935951 
   14400          3.6    3361.6438    437328.53   -1494972.7    192230.64   -1302742.1    4925599.5 
   14500        3.625    3362.6376    439564.45     -1495018    192287.47   -1302730.5    4915247.9 
   14600         3.65    3361.1236     441603.7   -1494901.6     192200.9   -1302700.7    4904896.4 
   14700        3.675    3345.8028    443460.96     -1494015     191324.8   -1302690.2    4894544.8 
   14800          3.7    3351.3061    444733.42   -1494333.5     191639.5     -1302694    4884193.3 
   14900        3.725    3335.3964    446321.28   -1493425.6    190729.72   -1302695.9    4873841.7 
   15000         3.75    3333.3758    447948.58   -1493316.8    190614.18   -1302702.6    4863490.2 
   15100        3.775    3323.6656    449991.83   -1492776.4    190058.91   -1302717.5    4853138.6 
   15200          3.8    3306.8567    452753.39   -1491832.7    189097.72     -1302735      4842787 
   15300        3.825    3281.6776    456445.45   -1490391.3    187657.89   -1302733.4    4832435.5 
   15400         3.85    3241.3617    459983.47   -1488078.8    185352.49   -1302726.3    4822083.9 
   15500        3.875    3219.3499    463918.19   -1486831.4    184093.78   -1302737.6    4811732.4 
   15600          3.9     3175.535    468233.62   -1484342.9    181588.28   -1302754.7    4801380.8 
   15700        3.925    3148.8941    472390.78   -1482817.2    180064.86   -1302752.3    4791029.3 
   15800         3.95    3113.7894     476872.5   -1480794.2    178057.45   -1302736.7    4780677.7 
   15900        3.975    3068.9349    481351.88   -1478225.3    175492.51   -1302732.8    4770326.2 
   16000            4    3031.8897       485490     -1476113    173374.14   -1302738.9    4759974.6 
   16100        4.025     2984.116    490113.64   -1473387.7    170642.27   -1302745.4    4749623.1 
   16200         4.05    2938.3039    495115.11   -1470768.5    168022.58   -1302745.9    4739271.5 
   16300        4.075     2882.727    500170.26   -1467599.3    164844.49   -1302754.8      4728920 
   16400          4.1    2831.2559    505304.69   -1464668.9    161901.19   -1302767.7    4718568.4 
   16500        4.125    2772.4443    510746.17   -1461308.6    158538.14   -1302770.4    4708216.9 
   16600         4.15    2709.0192    516394.23   -1457680.2    154911.27   -1302768.9    4697865.3 
   16700        4.175    2642.8139    522776.17   -1453909.4    151125.41     -1302784    4687513.8 
   16800          4.2    2567.3457    529409.08   -1449615.1    146809.88   -1302805.2    4677162.2 
   16900        4.225     2500.842    536439.51   -1445821.9    143006.96   -1302814.9    4666810.7 
   17000         4.25    2430.9122    543423.26   -1441818.4    139008.13   -1302810.2    4656459.1 
   17100        4.275    2363.6879    550258.12   -1437961.3    135164.01   -1302797.2    4646107.6 
   17200          4.3    2300.6042    557059.22     -1434334    131556.66   -1302777.3      4635756 
   17300        4.325    2238.7776    563737.05   -1430787.8    128021.19   -1302766.6    4625404.5 
   17400         4.35    2170.9901    570240.86   -1426914.3    124144.86   -1302769.4    4615052.9 
   17500        4.375     2102.534    577033.69   -1422998.5    120230.31   -1302768.2    4604701.4 
   17600          4.4    2045.6752    583859.36   -1419740.3    116978.92   -1302761.4    4594349.8 
   17700        4.425    1987.9864    589824.92   -1416452.7    113680.07   -1302772.6    4583998.3 
   17800         4.45    1957.0928    594073.47   -1414710.4    111913.46   -1302796.9    4573646.7 
   17900        4.475    1918.4495    597689.59   -1412505.5     109703.7   -1302801.8    4563295.2 
   18000          4.5    1880.9805    601821.57   -1410343.2     107561.1   -1302782.1    4552943.6 
   18100        4.525    1854.7692    605999.52   -1408833.5    106062.24   -1302771.3    4542592.1 
   18200         4.55    1815.3229    610695.41   -1406584.2    103806.56   -1302777.6    4532240.5 
   18300        4.575    1782.4843     615053.4   -1404718.2    101928.73   -1302789.4      4521889 
   18400          4.6    1762.4493    619070.84   -1403573.8    100783.06   -1302790.7    4511537.4 
   18500        4.625    1715.9265    623669.84     -1400913    98122.728   -1302790.3    4501185.8 
   18600         4.65    1710.0585    628312.07   -1400567.8    97787.173   -1302780.6    4490834.3 
   18700        4.675    1674.7716    632757.04   -1398544.6    95769.342   -1302775.3    4480482.7 
   18800          4.7    1661.2147    636323.19   -1397766.6    94994.111   -1302772.5    4470131.2 
   18900        4.725    1644.5946    639463.78   -1396800.4    94043.715   -1302756.7    4459779.6 
   19000         4.75    1622.7753    642922.24   -1395532.5    92796.009   -1302736.5    4449428.1 
   19100        4.775    1621.5172    646921.84   -1395407.7    92724.067   -1302683.6    4439076.5 
   19200          4.8    1604.8422    651020.66   -1394109.6    91770.533     -1302339      4428725 
   19300        4.825    1653.1049    655049.34   -1394458.1    94530.363   -1299927.7    4418373.4 
   19400         4.85    1868.9105    660735.24   -1394405.2    106870.89   -1287534.3    4408021.9 
   19500        4.875    1905.5379    663629.11   -1394430.4    108965.37   -1285465.1    4397670.3 
   19600          4.9    1907.4184    666162.42   -1394664.7    109072.91   -1285591.8    4387318.8 
   19700        4.925    2063.0046    671475.08   -1394869.5    117969.88   -1276899.6    4376967.2 
   19800         4.95    2158.7702     676309.6   -1394785.7    123446.09   -1271339.6    4366615.7 
   19900        4.975    2217.0382    680416.93   -1394558.4    126778.06   -1267780.4    4356264.1 
   20000            5    2353.9916     686953.7   -1393375.3    134609.53   -1258765.7    4345912.6 
   20100        5.025    2343.8493    692568.26   -1388289.5    134029.56   -1254259.9      4335561 
   20200         5.05    2335.4255    698502.74   -1383152.8    133547.86   -1249604.9    4325209.5 
   20300        5.075    2383.5598    705654.46   -1377621.4    136300.35   -1241321.1    4314857.9 
   20400          5.1    2349.5595    711780.08   -1371248.8    134356.09   -1236892.7    4304506.4 
   20500        5.125    2347.8499    718996.36   -1365344.8    134258.33   -1231086.5    4294154.8 
   20600         5.15    2353.4814    726466.18   -1357937.3    134580.36     -1223357    4283803.3 
   20700        5.175    2299.9458    734707.96   -1351426.9    131519.01   -1219907.9    4273451.7 
   20800          5.2    2338.1178       745178   -1343532.9    133701.82     -1209831    4263100.2 
   20900        5.225     2344.326    755648.58   -1335503.3    134056.83   -1201446.5    4252748.6 
   21000         5.25    2427.5246    768249.74   -1326312.4    138814.41     -1187498    4242397.1 
   21100        5.275    2528.5621    781630.69   -1317141.2    144592.09   -1172549.2    4232045.5 
   21200          5.3    2557.5165    794254.15   -1307707.7    146247.81   -1161459.9      4221694 
   21300        5.325    2618.4458    807698.26   -1298010.1    149731.96   -1148278.2    4211342.4 
   21400         5.35    2664.3874    821126.97     -1288351    152359.06     -1135992    4200990.9 
   21500        5.375    2725.7631    834137.56   -1278488.9    155868.74   -1122620.1    4190639.3 
   21600          5.4    2803.1809    847342.17   -1268153.9    160295.76   -1107858.1    4180287.8 
   21700        5.425    2816.0144    860540.54   -1257600.9    161029.63   -1096571.3    4169936.2 
   21800         5.45    2793.3398    874799.71   -1246288.2    159733.02   -1086555.2    4159584.6 
   21900        5.475    2842.9095    891729.27   -1234534.8    162567.59   -1071967.2    4149233.1 
   22000          5.5    2861.4141    908276.47   -1222525.3    163625.74   -1058899.5    4138881.5 
   22100        5.525    2896.8046    923045.24   -1211792.4     165649.5   -1046142.9      4128530 
   22200         5.55    2892.4294     936221.8   -1200172.9    165399.31   -1034773.6    4118178.4 
   22300        5.575    2889.7708    949457.14   -1188239.1    165247.28   -1022991.8    4107826.9 
   22400          5.6     2954.101    964417.23   -1177549.3    168925.91   -1008623.4    4097475.3 
   22500        5.625    3010.7031    980016.46   -1166386.1    172162.61   -994223.53    4087123.8 
   22600         5.65    3064.0902    995505.88   -1155800.7    175215.48   -980585.23    4076772.2 
   22700        5.675    3069.3135    1009307.8     -1145421    175514.17   -969906.84    4066420.7 
   22800          5.7    3068.8737    1023058.1   -1135255.3    175489.01   -959766.31    4056069.1 
   22900        5.725    3103.9821    1036312.9   -1126040.1    177496.64   -948543.49    4045717.6 
   23000         5.75    3150.3469    1048651.6   -1117978.8    180147.94   -937830.89      4035366 
   23100        5.775      3194.99    1058784.8   -1111323.4    182700.79   -928622.66    4025014.5 
   23200          5.8     3281.442    1067719.2   -1106419.5    187644.42   -918775.09    4014662.9 
   23300        5.825    3424.6584    1077358.1   -1101874.5    195834.04   -906040.49    4004311.4 
   23400         5.85    3609.9232    1087940.8   -1097943.3    206428.14   -891515.18    3993959.8 
   23500        5.875    3787.5025    1098494.2   -1093712.1    216582.74   -877129.37    3983608.3 
   23600          5.9    3978.8835    1107975.8   -1090030.6    227526.58   -862503.98    3973256.7 
   23700        5.925    4185.3099    1117776.3   -1086220.6    239330.77   -846889.85    3962905.2 
   23800         5.95     4399.369    1128229.2   -1082845.6    251571.43   -831274.19    3952553.6 
   23900        5.975    4613.2787    1138225.9   -1079094.7    263803.54   -815291.17    3942202.1 
   24000            6    4850.3574    1146650.7   -1075452.5    277360.53   -798091.97    3931850.5 
   24100        6.025    5059.9822    1154058.2   -1071485.7    289347.62   -782138.08      3921499 
   24200         6.05    5247.0476    1161426.3     -1067405    300044.68   -767360.32    3911147.4 
   24300        6.075    5425.3833    1169320.7   -1062771.5    310242.54   -752529.01    3900795.9 
   24400          6.1    5595.4454    1176993.8   -1057343.4    319967.29   -737376.11    3890444.3 
   24500        6.125    5758.1504    1184627.5   -1051838.2    329271.34   -722566.86    3880092.8 
   24600         6.15    5906.6058    1193993.4   -1045462.6    337760.54   -707702.02    3869741.2 
   24700        6.175    6049.2653    1205516.5   -1038189.5    345918.31   -692271.18    3859389.7 
   24800          6.2     6145.561    1217423.2   -1030454.9    351424.84   -679030.03    3849038.1 
   24900        6.225    6210.0946    1229371.3   -1021842.1     355115.1   -666727.03    3838686.6 
   25000         6.25    6270.6922    1242744.5   -1012614.7    358580.28   -654034.43      3828335 
   25100        6.275    6325.8279    1257659.1   -1002114.8    361733.14   -640381.62    3817983.4 
   25200          6.3     6343.068    1273377.4   -990518.64    362718.99   -627799.65    3807631.9 
   25300        6.325    6319.6313    1289908.4   -977828.69    361378.79   -616449.89    3797280.3 
   25400         6.35    6269.8333    1307212.2   -964498.58    358531.17   -605967.41    3786928.8 
   25500        6.375    6202.6024    1325763.2   -950648.96    354686.67   -595962.29    3776577.2 
   25600          6.4     6132.487      1344948   -936735.68    350677.22   -586058.46    3766225.7 
   25700        6.425    6068.2003    1364504.1   -923120.33    347001.08   -576119.25    3755874.1 
   25800         6.45    6013.2303    1384816.2   -910281.85     343857.7   -566424.15    3745522.6 
   25900        6.475    5953.8212    1405098.2    -897618.9    340460.48   -557158.42      3735171 
   26000          6.5    5896.1914    1425628.3    -884898.3       337165    -547733.3    3724819.5 
   26100        6.525    5853.4334    1445090.7   -873011.96    334719.96   -538292.01    3714467.9 
   26200         6.55    5820.6721    1463014.3    -861914.5    332846.55   -529067.95    3704116.4 
   26300        6.575    5810.6953    1478674.7    -852126.1    332276.04   -519850.07    3693764.8 
   26400          6.6    5819.1955    1492186.6   -843088.19    332762.11   -510326.08    3683413.3 
   26500        6.625    5850.1307    1505659.3   -835123.24    334531.09   -500592.15    3673061.7 
   26600         6.65    5906.9636      1518547   -828412.59       337781   -490631.59    3662710.2 
   26700        6.675    5986.2984    1530944.3   -822775.51    342317.64   -480457.86    3652358.6 
   26800          6.7    6091.9718    1542643.4   -818130.21    348360.42   -469769.79    3642007.1 
   26900        6.725    6215.3244    1553223.3   -813808.98    355414.16   -458394.82    3631655.5 
   27000         6.75    6354.8403    1562902.8   -810308.65    363392.17   -446916.49      3621304 
   27100        6.775    6513.3042    1572150.4   -807607.85    372453.69   -435154.16    3610952.4 
   27200          6.8    6711.8138    1580482.3   -805446.42    383805.17   -421641.25    3600600.9 
   27300        6.825    6918.9964    1587804.7   -803655.29     395652.6   -408002.69    3590249.3 
   27400         6.85    7107.1624    1594150.4   -802288.28     406412.6   -395875.68    3579897.8 
   27500        6.875    7284.2131    1600580.1   -800188.08    416536.98    -383651.1    3569546.2 
   27600          6.9    7495.6318    1608103.3   -798121.49    428626.65   -369494.85    3559194.7 
   27700        6.925    7666.7761    1616715.6   -795130.21    438413.28   -356716.93    3548843.1 
   27800         6.95    7786.0563    1626671.9   -791074.68    445234.14   -345840.54    3538491.6 
   27900        6.975    7883.8208    1638916.4    -785826.7    450824.66   -335002.04      3528140 
   28000            7    7979.7386    1653325.8   -779078.81    456309.58   -322769.23    3517788.5 
   28100        7.025     8062.751      1669012    -771245.7    461056.52   -310189.17    3507436.9 
   28200         7.05    8070.4798    1685600.6   -761658.24    461498.48   -300159.76    3497085.4 
   28300        7.075    8067.3726    1703934.5   -751594.56     461320.8   -290273.76    3486733.8 
   28400          7.1    8070.0597    1723562.1   -740050.73    461474.46   -278576.27    3476382.2 
   28500        7.125    8075.6093    1744171.7   -727690.91    461791.81    -265899.1    3466030.7 
   28600         7.15    8033.2796    1764939.7   -714816.67    459371.24   -255445.43    3455679.1 
   28700        7.175    7982.7104    1786391.4   -701099.19    456479.52   -244619.67    3445327.6 
   28800          7.2     7962.192    1808700.4   -687616.14    455306.21   -232309.94      3434976 
   28900        7.225    7957.7168    1831403.1   -673869.07     455050.3   -218818.77    3424624.5 
   29000         7.25    7963.9773    1853755.7   -660092.11    455408.29   -204683.81    3414272.9 
   29100        7.275    7990.7469    1876526.9    -646624.3    456939.07   -189685.22    3403921.4 
   29200          7.3    8029.0311    1899984.8   -633462.53     459128.3   -174334.23    3393569.8 
   29300        7.325    8072.3949    1923328.2   -620530.64       461608   -158922.64    3383218.3 
   29400         7.35    8134.6909      1945679   -608524.15     465170.3   -143353.85    3372866.7 
   29500        7.375    8199.7582    1965954.8   -596585.76    468891.07   -127694.69    3362515.2 
   29600          7.4    8277.6132    1983793.4   -585394.03     473343.1   -112050.93    3352163.6 
   29700        7.425    8363.5152    2000568.3   -574360.13    478255.28   -96104.846    3341812.1 
   29800         7.45    8459.2582    2016942.6   -564035.68     483730.2   -80305.478    3331460.5 
   29900        7.475    8560.9288    2033362.5   -553650.72    489544.08   -64106.634      3321109 
   30000          7.5    8661.0023    2050092.8   -543555.98    495266.64   -48289.339    3310757.4 
   30100        7.525    8754.2011    2067101.8   -533472.52    500596.07   -32876.445    3300405.9 
   30200         7.55    8847.0939    2084550.8    -523981.4    505908.01   -18073.383    3290054.3 
   30300        7.575    8935.6304    2102219.5    -514182.4    510970.85   -3211.5521    3279702.8 
   30400          7.6    9030.5889    2120991.4   -504344.02     516400.9    12056.889    3269351.2 
   30500        7.625    9090.6712      2140857   -493712.62    519836.62        26124    3258999.7 
   30600         7.65     9084.864    2163182.2   -480923.81    519504.54     38580.73    3248648.1 
   30700        7.675    9050.8427    2186017.5   -467012.52    517559.09    50546.563    3238296.6 
   30800          7.7    8995.8408    2209358.3    -451312.4    514413.88    63101.481      3227945 
   30900        7.725    8930.8417    2234825.7   -434214.41    510697.01    76482.597    3217593.5 
   31000         7.75     8795.211    2260495.9   -415232.38    502941.16    87708.781    3207241.9 
   31100        7.775    8625.1521    2286985.5   -394829.15     493216.6    98387.446    3196890.4 
   31200          7.8    8473.7465    2315059.4   -373846.24    484558.69    110712.45    3186538.8 
   31300        7.825    8307.3195    2344803.9   -352133.86    475041.81    122907.95    3176187.3 
   31400         7.85    8094.4703    2375177.9   -329772.77    462870.34    133097.58    3165835.7 
   31500        7.875    7866.8409    2405423.6   -306957.57    449853.69    142896.12    3155484.2 
   31600          7.9    7678.2281    2436625.2   -284967.86    439068.14    154100.29    3145132.6 
   31700        7.925    7504.3238      2467420   -262945.13    429123.69    166178.56      3134781 
   31800         7.95    7308.5024    2496388.9   -242649.41    417925.93    175276.52    3124429.5 
   31900        7.975    7136.3094    2524733.7   -223079.31    408079.33    185000.01    3114077.9 
   32000            8     7008.317    2553796.8    -204531.6    400760.27    196228.66    3103726.4 
   32100        8.025    6893.2644    2582394.1   -186932.05    394181.15    207249.11    3093374.8 
   32200         8.05    6799.0421      2611108   -170524.81    388793.19    218268.38    3083023.3 
   32300        8.075    6733.1275    2639091.4   -154849.52    385023.96    230174.45    3072671.7 
   32400          8.1    6689.9593    2665836.7   -139716.09    382555.45    242839.37    3062320.2 
   32500        8.125    6650.9972    2691660.4   -124656.19    380327.46    255671.28    3051968.6 
   32600         8.15    6597.9694    2716812.6   -108967.88    377295.14    268327.27    3041617.1 
   32700        8.175    6561.8698    2744221.3   -94356.001    375230.84    280874.84    3031265.5 
   32800          8.2    6502.4929    2772480.5    -78364.26    371835.46     293471.2      3020914 
   32900        8.225    6458.7501    2801559.9   -63289.664     369334.1    306044.43    3010562.4 
   33000         8.25    6378.6981    2831178.7   -46442.622    364756.44    318313.82    3000210.9 
   33100        8.275    6293.2919    2861252.7    -29703.85    359872.61    330168.76    2989859.3 
   33200          8.3    6178.7417    2891697.8   -11681.782    353322.23    341640.45    2979507.8 
   33300        8.325    6070.1363    2922711.4     6498.031    347111.79    353609.82    2969156.2 
   33400         8.35    5948.7928    2952909.7    25160.472    340172.94    365333.41    2958804.7 
   33500        8.375    5811.9043    2982161.9    43933.968    332345.17    376279.14    2948453.1 
   33600          8.4    5663.7133    3011101.8    62733.842    323871.09    386604.93    2938101.6 
   33700        8.425    5512.2289    3040369.7    81338.534    315208.68    396547.21      2927750 
   33800         8.45     5373.711    3068994.4    100079.13    307287.73    407366.86    2917398.5 
   33900        8.475    5255.0894    3098648.4    118434.83    300504.53    418939.37    2907046.9 
   34000          8.5    5112.9003    3127360.6    136913.59    292373.66    429287.25    2896695.4 
   34100        8.525    4984.6775    3154779.2    153527.46    285041.43    438568.89    2886343.8 
   34200         8.55    4868.0928    3180619.7    169700.74    278374.71    448075.44    2875992.3 
   34300        8.575    4823.5656    3204989.3    183599.19    275828.48    459427.67    2865640.7 
   34400          8.6    4775.8694    3227317.6    196591.43    273101.05    469692.48    2855289.2 
   34500        8.625    4735.2521    3248677.8    207503.65     270778.4    478282.06    2844937.6 
   34600         8.65    4706.4037    3270019.2    217865.26    269128.75    486994.01    2834586.1 
   34700        8.675    4734.5624    3293378.8    227551.14    270738.97    498290.11    2824234.5 
   34800          8.7    4744.2107    3318843.7    237006.06    271290.69    508296.74      2813883 
   34900        8.725    4710.5039      3344885     247017.6    269363.21    516380.81    2803531.4 
   35000         8.75     4675.496    3374402.3    257585.34    267361.34    524946.69    2793179.8 
   35100        8.775     4663.572    3405609.2    270261.99    266679.49    536941.47    2782828.3 
   35200          8.8    4614.7909    3436499.2    282083.72    263890.01    545973.73    2772476.7 
   35300        8.825    4557.2736    3468760.8     296245.2    260600.97    556846.17    2762125.2 
   35400         8.85    4565.3664    3504208.5    311726.57    261063.74    572790.31    2751773.6 
   35500        8.875    4609.0841    3543632.9    330474.25    263563.67    594037.92    2741422.1 
   35600          8.9    4647.2541    3587069.8    352052.72    265746.37    617799.09    2731070.5 
   35700        8.925    4701.7612    3632385.3    374369.33    268863.28    643232.61      2720719 
   35800         8.95    4712.2586    3679160.7    399108.59    269463.56    668572.15    2710367.4 
   35900        8.975    4758.4573    3728309.6    423602.51    272105.36    695707.86    2700015.9 
   36000            9    4849.3757    3778842.8    449275.21    277304.39     726579.6    2689664.3 
   36100        9.025    4975.9712      3830754    474769.02    284543.57    759312.59    2679312.8 
   36200         9.05    5063.6523    3883493.9     502812.3    289557.48    792369.78    2668961.2 
   36300        9.075    5152.6883    3937527.4    530249.19    294648.88    824898.07    2658609.7 
   36400          9.1     5267.181    3993072.8    557466.73    301195.98    858662.71    2648258.1 
   36500        9.125    5409.0238    4050956.3    584529.03    309307.04    893836.08    2637906.6 
   36600         9.15    5561.6171    4110770.8    611907.82    318032.87    929940.69      2627555 
   36700        9.175    5733.4854    4173634.6    639085.56    327860.91    966946.46    2617203.5 
   36800          9.2    5945.5662    4240061.3    665864.35    339988.43    1005852.8    2606851.9 
   36900        9.225     6145.648    4306068.7    694284.87    351429.81    1045714.7    2596500.4 
   37000         9.25    6372.7757    4373084.6    721138.92    364417.78    1085556.7    2586148.8 
   37100        9.275     6591.143    4440596.6    748963.86    376904.79    1125868.7    2575797.3 
   37200          9.3    6819.7314    4508155.4    776241.27    389976.28    1166217.6    2565445.7 
   37300        9.325    7046.9292    4577497.3    804062.93    402968.25    1207031.2    2555094.2 
   37400         9.35    7284.5016      4646565    832626.23    416553.48    1249179.7    2544742.6 
   37500        9.375    7550.9739    4716938.3    861165.14     431791.3    1292956.4    2534391.1 
   37600          9.4    7820.2599    4786332.9     891139.5    447190.03    1338329.5    2524039.5 
   37700        9.425    8055.6459    4856620.5    922867.11    460650.23    1383517.3      2513688 
   37800         9.45    8254.3031    4931043.3    956927.62    472010.15    1428937.8    2503336.4 
   37900        9.475    8450.1885    5008425.7    990947.15    483211.56    1474158.7    2492984.9 
   38000          9.5    8624.0789      5090726    1026421.6    493155.23    1519576.9    2482633.3 
   38100        9.525    8770.7752    5174623.1    1062625.8    501543.84    1564169.6    2472281.8 
   38200         9.55    8931.9622    5262697.8    1098090.1    510761.08    1608851.2    2461930.2 
   38300        9.575    9066.5296    5353548.5    1135328.9    518456.12    1653785.1    2451578.6 
   38400          9.6    9195.2033    5445467.5    1172165.3    525814.14    1697979.4    2441227.1 
   38500        9.625    9322.0251    5538283.2      1209333    533066.26    1742399.2    2430875.5 
   38600         9.65    9467.2929    5628821.2      1244878    541373.18    1786251.2      2420524 
   38700        9.675    9619.6474      5718158    1279674.5    550085.35    1829759.9    2410172.4 
   38800          9.7    9832.9541    5802803.8    1311015.7    562282.97    1873298.7    2399820.9 
   38900        9.725    10027.515      5884429    1341925.1    573408.63    1915333.7    2389469.3 
   39000         9.75     10255.49    5963994.5    1370835.4    586445.05    1957280.4    2379117.8 
   39100        9.775    10504.384    6040862.8    1396413.4    600677.71    1997091.1    2368766.2 
   39200          9.8    10753.963    6119036.7    1422173.9     614949.5    2037123.4    2358414.7 
   39300        9.825    11012.674    6196121.5    1446068.7    629743.51    2075812.2    2348063.1 
   39400         9.85    11303.048    6271900.1    1467895.1     646348.1    2114243.2    2337711.6 
   39500        9.875    11587.634    6348642.4    1491250.5    662621.74    2153872.2      2327360 
   39600          9.9    11906.808    6423408.4    1512425.2    680873.25    2193298.4    2317008.5 
   39700        9.925    12213.342      6501336    1535692.3    698401.94    2234094.2    2306656.9 
   39800         9.95    12531.836      6587060    1560723.7    716614.54    2277338.2    2296305.4 
   39900        9.975    12748.785    6680929.1    1592471.4    729020.47    2321491.8    2285953.8 
   40000           10    12857.543    6785658.9    1632422.8    735239.65    2367662.4    2275602.3 
   40100       10.025    12904.331      6893673    1676787.7    737915.13    2414702.8    2265250.7 
   40200        10.05    12894.528    7009651.2    1725544.8    737354.55    2462899.3    2254899.2 
   40300       10.075    12832.609    7137985.2      1779084    733813.82    2512897.8    2244547.6 
   40400         10.1    12718.626    7272291.3    1835059.6    727295.86    2562355.4    2234196.1 
   40500       10.125    12589.244    7406312.2    1892925.9    719897.32    2612823.2    2223844.5 
   40600        10.15    12494.469    7535063.1    1948488.3    714477.79    2662966.1      2213493 
   40700       10.175    12401.455    7659975.1    2003303.7    709158.89    2712462.6    2203141.4 
   40800         10.2    12421.926    7785364.1      2052048    710329.54    2762377.6    2192789.9 
   40900       10.225    12468.636      7907355    2097985.1    713000.57    2810985.6    2182438.3 
   41000        10.25    12571.381    8027937.2    2140779.7     718875.9    2859655.6    2172086.8 
   41100       10.275    12652.616    8149845.8    2183795.6    723521.18    2907316.7    2161735.2 
   41200         10.3    12633.092      8276713    2231823.5    722404.73    2954228.3    2151383.7 
   41300       10.325    12521.721    8414883.8    2284435.6    716036.16    3000471.8    2141032.1 
   41400        10.35    12296.682      8564808    2343479.8    703167.59    3046647.4    2130680.6 
   41500       10.375    11930.342    8720094.1    2409178.8    682219.01    3091397.8      2120329 
   41600         10.4    11539.879    8874744.9    2476082.5    659890.96    3135973.4    2109977.4 
   41700       10.425    11081.386    9025526.1      2545330     633672.7    3179002.7    2099625.9 
   41800        10.45    10712.599      9177635    2609198.5    612584.17    3221782.6    2089274.3 
   41900       10.475    10388.038    9322561.2    2668539.5    594024.65    3262564.2    2078922.8 
   42000         10.5    10135.467    9462762.4      2723313    579581.71    3302894.7    2068571.2 
   42100       10.525    9926.7244    9599300.6    2774515.2    567645.09    3342160.3    2058219.7 
   42200        10.55    9739.3135    9737890.1    2824498.9    556928.28    3381427.2    2047868.1 
   42300       10.575    9524.6319    9881962.2    2875051.8    544652.03    3419703.8    2037516.6 
   42400         10.6    9288.8752     10038704    2928054.3    531170.62    3459224.9      2027165 
   42500       10.625    9094.0977     10201698    2984050.7    520032.56    3504083.2    2016813.5 
   42600        10.65    9144.8511     10364200    3037538.6    522934.82    3560473.4    2006461.9 
   42700       10.675     9473.782     10528776    3087246.3    541744.25    3628990.6    1996110.4 
   42800         10.7    9810.2541     10688077      3133576    560984.91    3694560.9    1985758.8 
   42900       10.725    10267.158     10845228    3178963.3    587112.27    3766075.6    1975407.3 
   43000        10.75    10583.043     11019400    3236714.7    605175.68    3841890.4    1965055.7 
   43100       10.775    10633.032     11203194      3304914    608034.26    3912948.3    1954704.2 
   43200         10.8     10606.53     11411490      3383829    606518.76    3990347.8    1944352.6 
   43300       10.825    10455.949     11639024      3471867    597908.01    4069775.1    1934001.1 
   43400        10.85    10278.904     11879139    3567605.4    587783.99    4155389.4    1923649.5 
   43500       10.875    10231.825     12123889    3663660.6    585091.81    4248752.4      1913298 
   43600         10.9    10347.179     12360779    3751927.6    591688.17    4343615.7    1902946.4 
   43700       10.925    10637.348     12585418    3827114.5    608281.04    4435395.6    1892594.9 
   43800        10.95    11173.859     12798066    3893270.4    638960.66    4532231.1    1882243.3 
   43900       10.975    11779.825     13016379    3959887.6    673611.94    4633499.5    1871891.8 
   44000           11    12157.691     13259013    4041416.3    695219.63      4736636    1861540.2 
   44100       11.025    12377.463     13532186    4137434.2    707786.95    4845221.1    1851188.7 
   44200        11.05    12445.678     13817685    4246336.3    711687.76      4958024    1840837.1 
   44300       11.075      12525.5     14104829    4356918.5    716252.26    5073170.7    1830485.6 
   44400         11.1    12792.197     14387093    4459151.1    731502.89      5190654      1820134 
   44500       11.125    13316.581     14650929    4545449.9    761489.06      5306939    1809782.5 
   44600        11.15    14073.994     14900071    4616847.8     804800.6    5421648.4    1799430.9 
   44700       11.175    14852.203     15147576    4682344.9    849301.34    5531646.2    1789079.4 
   44800         11.2    15415.714     15412020    4755002.8    881524.88    5636527.7    1778727.8 
   44900       11.225    15685.217     15692100    4839409.9       896936    5736345.9    1768376.2 
   45000        11.25     15661.08     15976865    4933828.6    895555.76    5829384.3    1758024.7 
   45100       11.275    15573.152     16261161      5030526    890527.75    5921053.8    1747673.1 
   45200         11.3    15604.748     16541243    5123235.2    892334.51    6015569.7    1737321.6 
   45300       11.325    15692.953     16832915    5219179.8    897378.38    6116558.2      1726970 
   45400        11.35    15812.561     17134580    5319281.7    904217.95    6223499.6    1716618.5 
   45500       11.375    15761.245     17434725    5430759.1    901283.54    6332042.6    1706266.9 
   45600         11.4      15546.8     17767458    5555634.3    889020.85    6444655.2    1695915.4 
   45700       11.425    15225.824     18102751    5692139.4    870666.29    6562805.7    1685563.8 
   45800        11.45    15043.033     18446414    5821822.8    860213.67    6682036.4    1675212.3 
   45900       11.475    15152.916     18797327    5939261.2    866497.17    6805758.3    1664860.7 
   46000         11.5    15408.897     19150548    6049634.1    881135.06    6930769.1    1654509.2 
   46100       11.525    15466.718     19506468    6169446.2    884441.46    7053887.7    1644157.6 
   46200        11.55    15247.918     19861567    6300938.8    871929.69    7172868.5    1633806.1 
   46300       11.575    14691.979     20208686    6446222.8    840139.13    7286361.9    1623454.5 
   46400         11.6    13979.625     20543609    6593427.8    799404.24    7392832.1      1613103 
   46500       11.625    13450.146     20894317    6724558.8    769126.76    7493685.6    1602751.4 
   46600        11.65     13177.32     21247931    6836733.7     753525.6    7590259.3    1592399.9 
   46700       11.675    13171.457     21608432    6935966.9    753190.34    7689157.2    1582048.3 
   46800         11.7    13409.564     21997469      7038861    766806.11    7805667.1    1571696.8 
   46900       11.725    13734.207     22413515    7159105.6    785370.37    7944475.9    1561345.2 
   47000        11.75    13756.596     22826479    7299653.7    786650.66    8086304.3    1550993.7 
   47100       11.775    13695.211     23230991    7453557.2    783140.42    8236697.6    1540642.1 
   47200         11.8    13792.615     23635691      7610433    788710.36    8399143.4    1530290.6 
   47300       11.825    14066.289     24056646      7762124    804359.96    8566483.9      1519939 
   47400        11.85    14453.131     24530532    7915164.7       826481    8741645.7    1509587.5 
   47500       11.875      14714.6     25001470    8080366.3     841432.7      8921799    1499235.9 
   47600         11.9    14980.522     25467999    8245858.6    856639.07    9102497.7    1488884.4 
   47700       11.925    15167.708     25923843    8416955.1    867343.01    9284298.1    1478532.8 
   47800        11.95    15365.588     26358304      8591890    878658.49    9470548.5    1468181.3 
   47900       11.975    15615.278     26844225    8769715.2    892936.66    9662651.8    1457829.7 
   48000           12     15940.75     27367702    8949088.2    911548.28    9860636.5    1447478.2 
   48100       12.025    16354.784     27899908    9128576.7    935224.19     10063801    1437126.6 
   48200        12.05    16975.672     28432430    9301461.5    970728.74     10272190      1426775 
   48300       12.075    17878.472     28939092    9458221.7      1022354     10480576    1416423.5 
   48400         12.1    18917.349     29461592    9604618.7    1081760.7     10686379    1406071.9 
   48500       12.125    19762.617     30004429    9756397.1    1130096.1     10886493    1395720.4 
   48600        12.15    20137.194     30560303    9931230.5    1151515.8     11082746    1385368.8 
   48700       12.175    20014.373     31123135     10130435    1144492.4     11274927    1375017.3 
   48800         12.2    19595.155     31669220     10345756      1120520     11466276    1364665.7 
   48900       12.225    19149.796     32247087     10563347    1095052.8     11658400    1354314.2 
   49000        12.25     18868.17     32852357     10772871    1078948.5     11851819    1343962.6 
   49100       12.275    18766.618     33455070     10980301    1073141.4     12053443    1333611.1 
   49200         12.3    18665.901     34054892     11194949      1067382     12262331    1323259.5 
   49300       12.325    18506.881     34675680     11420642    1058288.7     12478931      1312908 
   49400        12.35     18098.44     35335675     11662863    1034932.6     12697796    1302556.4 
   49500       12.375     17692.34     36022597     11907119    1011710.4     12918830    1292204.9 
   49600         12.4    17623.161     36700337     12134746    1007754.5     13142500    1281853.3 
   49700       12.425    17986.397     37361542     12343083    1028525.6     13371609    1271501.8 
   49800        12.45    18646.961     38035903     12536668    1066298.9     13602967    1261150.2 
   49900       12.475    19155.286     38738924     12739367    1095366.8     13834733    1250798.7 
   50000         12.5    19160.778     39481036     12975728    1095680.8     14071409    1240447.1 
Loop time of 524.381 on 24 procs for 50000 steps with 442392 atoms

Performance: 2.060 ns/day, 11.653 hours/ns, 95.350 timesteps/s
99.7% CPU use with 24 MPI tasks x 1 OpenMP threads

MPI task timing breakdown:
Section |  min time  |  avg time  |  max time  |%varavg| %total
---------------------------------------------------------------
Pair    | 243.89     | 260.65     | 285.99     |  66.0 | 49.71
Neigh   | 0.16604    | 0.18183    | 0.19479    |   1.8 |  0.03
Comm    | 52.782     | 59.366     | 63.119     |  39.7 | 11.32
Output  | 14.904     | 14.909     | 15.002     |   0.5 |  2.84
Modify  | 144.42     | 167.62     | 182.89     |  70.8 | 31.96
Other   |            | 21.66      |            |       |  4.13

Nlocal:        18433.0 ave       19079 max       17729 min
Histogram: 2 2 1 5 0 5 1 2 3 3
Nghost:        56979.2 ave       58779 max       55602 min
Histogram: 2 4 3 3 3 1 2 4 0 2
Neighs:         0.00000 ave           0 max           0 min
Histogram: 24 0 0 0 0 0 0 0 0 0

Total # of neighbors = 0
Ave neighs/atom = 0.0000000
Neighbor list builds = 996
Dangerous builds = 0


---------------------------------------------------------------------
      Device Time Info (average): 
---------------------------------------------------------------------
Data Transfer:   35.0776 s.
Neighbor copy:   0.0528 s.
Neighbor build:  5.7379 s.
Force calc:      155.3309 s.
Device Overhead: 66.5191 s.
Average split:   1.0000.
Lanes / atom:    4.
Vector width:    32.
Max Mem / Proc:  171.59 MB.
CPU Neighbor:    0.9094 s.
CPU Cast/Pack:   23.4671 s.
CPU Driver_Time: 1.0079 s.
CPU Idle_Time:   75.8725 s.
---------------------------------------------------------------------

Total wall time: 0:08:53
