LAMMPS (24 Mar 2022)
OMP_NUM_THREADS environment is not set. Defaulting to 1 thread. (src/comm.cpp:98)
  using 1 OpenMP thread(s) per MPI task

# System init

units      metal
dimension  3
boundary   p p p
atom_style atomic
timestep   0.00025


# read data
read_data combined_cells.data
Reading data file ...
  orthogonal box = (0 0 0) to (100.90559 100.90559 26.232508)
  2 by 3 by 1 MPI processor grid
  reading atoms ...
  26460 atoms
  read_data CPU = 0.058 seconds

# pair potential

pair_style hybrid/overlay eam/alloy edip/multi
pair_coeff * * eam/alloy Mishin-Ni-Al-2009.eam.alloy Al NULL
pair_coeff * * edip/multi NiAlO.edip Al O

mass 2 15.999


# reporting
thermo_style custom step time temp pe epair etotal press vol lx ly lz spcpu cpuremain elapsed
thermo 100

dump   1 all atom 100 generic.lammpstrj

# Single point
min_style cg
minimize 1e-5 1e-5 10000 100000

CITE-CITE-CITE-CITE-CITE-CITE-CITE-CITE-CITE-CITE-CITE-CITE-CITE

Your simulation uses code contributions which should be cited:

- @article{cjiang2012
 author    = {Jian, Chao and Morgan, Dane, and Szlufarska, Izabella},
 title     = {Carbon tri-interstitial defect: A model for DII center},
 journal   = {Physical Review B},
 volume    = {86},
 pages     = {144118},
 year      = {2012},
}

@article{lpizzagalli2010,
 author    = {G. Lucas, M. Bertolus, and L. Pizzagalli},
 journal   = {J. Phys. : Condens. Matter 22},
 volume    = {22},
 pages     = {035802},
 year      = {2010},
}

CITE-CITE-CITE-CITE-CITE-CITE-CITE-CITE-CITE-CITE-CITE-CITE-CITE

WARNING: Using 'neigh_modify every 1 delay 0 check yes' setting during minimization (src/min.cpp:187)
Neighbor list info ...
  update every 1 steps, delay 0 steps, check yes
  max neighbors/atom: 2000, page size: 100000
  master list distance cutoff = 8.28721
  ghost atom cutoff = 8.28721
  binsize = 4.143605, bins = 25 25 7
  3 neighbor lists, perpetual/occasional/extra = 3 0 0
  (1) pair eam/alloy, perpetual, skip from (3)
      attributes: half, newton on
      pair build: skip
      stencil: none
      bin: none
  (2) pair edip/multi, perpetual
      attributes: full, newton on
      pair build: full/bin/atomonly
      stencil: full/bin/3d
      bin: standard
  (3) neighbor class addition, perpetual, half/full from (2)
      attributes: half, newton on
      pair build: halffull/newton
      stencil: none
      bin: none
Per MPI rank memory allocation (min/avg/max) = 9.681 | 9.681 | 9.681 Mbytes
   Step          Time           Temp          PotEng         E_pair         TotEng         Press          Volume           Lx             Ly             Lz           S/CPU         CPULeft       Elapsed  
         0   0              0              1032986.6      1032986.6      1032986.6      426653.26      267097.75      100.90559      100.90559      26.232508      0              0                      0 
        94   0.0235         0             -203667.52     -203667.52     -203667.52     -313.3468       267097.75      100.90559      100.90559      26.232508      13.252701      747.47036             94 
Loop time of 7.09291 on 6 procs for 94 steps with 26460 atoms

99.8% CPU use with 6 MPI tasks x 1 OpenMP threads

Minimization stats:
  Stopping criterion = energy tolerance
  Energy initial, next-to-last, final = 
      1032986.57276442  -203666.958306997   -203667.51611798
  Force two-norm initial, final = 9.096056e+09 150.70699
  Force max component initial, final = 1.7411329e+08 2.3101048
  Final line search alpha, max atom move = 0.023576318 0.054463765
  Iterations, force evaluations = 94 196

MPI task timing breakdown:
Section |  min time  |  avg time  |  max time  |%varavg| %total
---------------------------------------------------------------
Pair    | 6.5632     | 6.6499     | 6.7293     |   2.4 | 93.75
Neigh   | 0.052134   | 0.053974   | 0.061065   |   1.4 |  0.76
Comm    | 0.27325    | 0.35105    | 0.43835    |  10.4 |  4.95
Output  | 0          | 0          | 0          |   0.0 |  0.00
Modify  | 0          | 0          | 0          |   0.0 |  0.00
Other   |            | 0.03801    |            |       |  0.54

Nlocal:           4410 ave        4410 max        4410 min
Histogram: 6 0 0 0 0 0 0 0 0 0
Nghost:          10045 ave       10045 max       10045 min
Histogram: 6 0 0 0 0 0 0 0 0 0
Neighs:              0 ave           0 max           0 min
Histogram: 6 0 0 0 0 0 0 0 0 0
FullNghs:       464814 ave      464842 max      464786 min
Histogram: 3 0 0 0 0 0 0 0 0 3

Total # of neighbors = 2788884
Ave neighs/atom = 105.4
Neighbor list builds = 2
Dangerous builds = 0

# Thermalisation

velocity all create 300 1 mom yes rot no

fix 1 all npt temp 300 300 $(100.0*dt) iso 1.0 1.0 $(1000*dt)
fix 1 all npt temp 300 300 0.025000000000000001388 iso 1.0 1.0 $(1000*dt)
fix 1 all npt temp 300 300 0.025000000000000001388 iso 1.0 1.0 0.25

run  10000
Per MPI rank memory allocation (min/avg/max) = 8.559 | 8.559 | 8.559 Mbytes
   Step          Time           Temp          PotEng         E_pair         TotEng         Press          Volume           Lx             Ly             Lz           S/CPU         CPULeft       Elapsed  
        94   0              300           -203667.52     -203667.52     -202641.49      3789.7162      267097.75      100.90559      100.90559      26.232508      0              0                      0 
       100   0.0015         275.9671      -203585.41     -203585.41     -202641.57      25545.692      267125         100.90902      100.90902      26.2334        25.72415       388.50774              6 
       200   0.0265         220.63993     -203369.58     -203369.58     -202614.97     -20296.72       273393.64      101.69227      101.69227      26.437022      23.927405      411.86601            106 
       300   0.0515         307.10629     -203592.69     -203592.69     -202542.36      1064.6093      274023.69      101.77033      101.77033      26.457315      27.588785      382.1188             206 
       400   0.0765         290.899       -203529.01     -203529.01     -202534.11      6804.713       275239.67      101.92064      101.92064      26.496392      27.9974        367.76927            306 
       500   0.1015         256.48724     -203364.19     -203364.19     -202486.98     -7447.1441      277708.84      102.22451      102.22451      26.575389      26.833147      362.39109            406 
       600   0.1265         315.12548     -203487.29     -203487.29     -202409.53      2200.7841      277102.99      102.15012      102.15012      26.556049      29.394749      351.57214            506 
       700   0.1515         397.47605     -203856.3      -203856.3      -202496.89     -1531.2095      275630.15      101.96882      101.96882      26.508916      27.328451      347.18839            606 
       800   0.1765         394.38552     -204038.57     -204038.57     -202689.73     -1912.8621      275162.06      101.91106      101.91106      26.493901      23.485283      350.89263            706 
       900   0.2015         373.35912     -204158.27     -204158.27     -202881.35      223.70822      275604.6       101.96567      101.96567      26.508097      23.81814       351.94236            806 
      1000   0.2265         314.924       -204104.11     -204104.11     -203027.04     -1542.175       276338.18      102.05605      102.05605      26.531595      28.099877      345.41208            906 
      1100   0.2515         309.75035     -204167.92     -204167.92     -203108.54      818.64807      275753.39      101.98401      101.98401      26.512866      24.27601       344.48415           1006 
      1200   0.2765         317.67039     -204276.64     -204276.64     -203190.18      1078.0733      275683.64      101.97541      101.97541      26.510631      28.049242      338.523             1106 
      1300   0.3015         324.00815     -204397.94     -204397.94     -203289.8       2438.3555      275122.69      101.9062       101.9062       26.492638      27.666721      333.31863           1206 
      1400   0.3265         314.4039      -204469.03     -204469.03     -203393.74     -1306.9121      275904.13      102.00259      102.00259      26.517697      28.322479      327.80064           1306 
      1500   0.3515         296.61953     -204480.94     -204480.94     -203466.48      1730.1255      276299.16      102.05125      102.05125      26.530346      28.488926      322.43924           1406 
      1600   0.3765         300.24503     -204523.22     -204523.22     -203496.36      324.71503      276141.2       102.0318       102.0318       26.52529       28.466577      317.33923           1506 
      1700   0.4015         300.1319      -204541.12     -204541.12     -203514.64     -1934.7653      276038.15      102.0191       102.0191       26.521989      28.454606      312.4446            1606 
      1800   0.4265         301.30221     -204563.48     -204563.48     -203533         1744.2904      276078.57      102.02408      102.02408      26.523284      27.963846      308.01163           1706 
      1900   0.4515         297.69311     -204575.04     -204575.04     -203556.9       135.40896      275825.4       101.99289      101.99289      26.515174      28.152691      303.56472           1806 
      2000   0.4765         290.71139     -204554.66     -204554.66     -203560.4      -3593.0104      275698.14      101.9772       101.9772       26.511096      28.201805      299.18544           1906 
      2100   0.5015         300.47292     -204550.65     -204550.65     -203523         2835.5656      275757.73      101.98455      101.98455      26.513006      28.608862      294.6882            2006 
      2200   0.5265         304.68271     -204537.36     -204537.36     -203495.32     -2238.6747      276042.83      102.01968      102.01968      26.52214       28.314208      290.42245           2106 
      2300   0.5515         308.71839     -204558.94     -204558.94     -203503.09      2284.2381      275700.65      101.97751      101.97751      26.511176      28.301552      286.22882           2206 
      2400   0.5765         301.1446      -204582.12     -204582.12     -203552.18     -722.46875      275736.25      101.9819       101.9819       26.512317      27.9295        282.2495            2306 
      2500   0.6015         296.55739     -204607.14     -204607.14     -203592.88      543.26871      275711.65      101.97887      101.97887      26.511529      26.96664       278.70683           2406 
      2600   0.6265         295.0736      -204616.69     -204616.69     -203607.51      575.34008      275494.03      101.95203      101.95203      26.504552      25.952638      275.58423           2506 
      2700   0.6515         298.59228     -204618.02     -204618.02     -203596.81      223.06611      275426.02      101.94364      101.94364      26.50237       25.14865       272.75506           2606 
      2800   0.6765         303.6375      -204621.3      -204621.3      -203582.83      134.03869      275563.35      101.96058      101.96058      26.506774      28.126759      268.70625           2706 
      2900   0.7015         302.47177     -204624.94     -204624.94     -203590.46     -1154.001       275748.3       101.98338      101.98338      26.512703      26.091825      265.4035            2806 
      3000   0.7265         298.87973     -204630.89     -204630.89     -203608.69     -76.360498      275795.5       101.9892       101.9892       26.514216      27.058236      261.73013           2906 
      3100   0.7515         299.26936     -204640.92     -204640.92     -203617.39      334.68996      275783.59      101.98773      101.98773      26.513834      24.366324      259.00524           3006 
      3200   0.7765         300.89721     -204641.94     -204641.94     -203612.84      1183.506       275781.97      101.98753      101.98753      26.513782      27.97785       255.01568           3106 
      3300   0.8015         301.25809     -204633.65     -204633.65     -203603.32     -1755.7162      275732.51      101.98144      101.98144      26.512197      27.953731      251.05856           3206 
      3400   0.8265         302.57284     -204636.5      -204636.5      -203601.67      2333.4704      275632.44      101.9691       101.9691       26.508989      28.159397      247.07152           3306 
      3500   0.8515         301.68134     -204644.84     -204644.84     -203613.06     -2472.0099      275779.61      101.98724      101.98724      26.513707      26.567758      243.52195           3406 
      3600   0.8765         299.17477     -204651.55     -204651.55     -203628.35     -2444.6883      275621.51      101.96775      101.96775      26.508639      27.449391      239.73622           3506 
      3700   0.9015         299.62094     -204664.17     -204664.17     -203639.44      465.51327      275566.92      101.96102      101.96102      26.506889      26.728338      236.13267           3606 
      3800   0.9265         299.80728     -204673.15     -204673.15     -203647.78     -695.03159      275399.25      101.94033      101.94033      26.501512      25.684311      232.77997           3706 
      3900   0.9515         299.21273     -204679.93     -204679.93     -203656.59      2925.2329      275237.34      101.92035      101.92035      26.496317      26.204911      229.27297           3806 
      4000   0.9765         298.89537     -204677.12     -204677.12     -203654.87     -655.71057      275399.48      101.94036      101.94036      26.501519      27.398496      225.49078           3906 
      4100   1.0015         302.17529     -204678.89     -204678.89     -203645.42      2608.7539      275290.41      101.9269       101.9269       26.49802       27.318859      221.73112           4006 
      4200   1.0265         303.1228      -204677.94     -204677.94     -203641.24     -619.44389      275381.11      101.9381       101.9381       26.50093       25.367767      218.38042           4106 
      4300   1.0515         298.50273     -204671.16     -204671.16     -203650.25     -1511.011       275615.99      101.96707      101.96707      26.508462      27.892713      214.51003           4206 
      4400   1.0765         300.44126     -204690.1      -204690.1      -203662.56      1319.0176      275531.72      101.95668      101.95668      26.50576       27.884414      210.6543            4306 
      4500   1.1015         300.49333     -204699.01     -204699.01     -203671.3       519.06083      275601.09      101.96523      101.96523      26.507984      27.904793      206.80748           4406 
      4600   1.1265         298.82785     -204693.5      -204693.5      -203671.49      671.98471      275496.3       101.95231      101.95231      26.504624      27.640321      203.01414           4506 
      4700   1.1515         300.79445     -204691.5      -204691.5      -203662.75     -831.92159      275605.55      101.96578      101.96578      26.508128      27.669794      199.22391           4606 
      4800   1.1765         302.63447     -204691.15     -204691.15     -203656.11      771.43632      275614.76      101.96692      101.96692      26.508423      27.737204      195.43129           4706 
      4900   1.2015         302.67339     -204694.37     -204694.37     -203659.2      -2464.9508      275498.88      101.95263      101.95263      26.504707      27.814481      191.63564           4806 
      5000   1.2265         299.32133     -204694.38     -204694.38     -203670.68      1421.4842      275450.43      101.94665      101.94665      26.503153      27.735867      187.85874           4906 
      5100   1.2515         299.31059     -204702.22     -204702.22     -203678.55     -936.51968      275387.03      101.93883      101.93883      26.50112       27.010247      184.18532           5006 
      5200   1.2765         297.79417     -204698.76     -204698.76     -203680.28     -1528.7943      275352.73      101.93459      101.93459      26.50002       27.313389      180.47138           5106 
      5300   1.3015         298.86247     -204693.56     -204693.56     -203671.42      374.31539      275366.41      101.93628      101.93628      26.500458      26.978929      176.80127           5206 
      5400   1.3265         300.12626     -204691.84     -204691.84     -203665.38     -2321.0808      275385.04      101.93858      101.93858      26.501056      26.985814      173.12894           5306 
      5500   1.3515         301.38476     -204697.37     -204697.37     -203666.6       2731.6535      275370.44      101.93678      101.93678      26.500588      25.616526      169.6237            5406 
      5600   1.3765         302.07414     -204707.37     -204707.37     -203674.24      1466.2751      275388.48      101.939        101.939        26.501166      25.067191      166.17382           5506 
      5700   1.4015         300.17477     -204713.43     -204713.43     -203686.8      -1613.0655      275425.78      101.94361      101.94361      26.502363      25.613191      162.63804           5606 
      5800   1.4265         298.99066     -204722.36     -204722.36     -203699.79     -325.48348      275369.93      101.93672      101.93672      26.500571      27.443416      158.8934            5706 
      5900   1.4515         296.47064     -204718.21     -204718.21     -203704.25      1204.6738      275385.31      101.93861      101.93861      26.501064      25.015647      155.40768           5806 
      6000   1.4765         299.20184     -204716.65     -204716.65     -203693.36     -149.06959      275438.61      101.94519      101.94519      26.502774      27.61587       151.64372           5906 
      6100   1.5015         300.94695     -204710.31     -204710.31     -203681.04     -3048.8315      275488.15      101.9513       101.9513       26.504363      27.811458      147.86758           6006 
      6200   1.5265         302.15928     -204713.18     -204713.18     -203679.77      1647.5828      275493.59      101.95197      101.95197      26.504537      27.659815      144.10992           6106 
      6300   1.5515         299.72125     -204715.89     -204715.89     -203690.82      1146.1164      275523.32      101.95564      101.95564      26.505491      28.329484      140.30461           6206 
      6400   1.5765         300.36362     -204727.17     -204727.17     -203699.9       205.57795      275510.23      101.95403      101.95403      26.505071      26.678339      136.636             6306 
      6500   1.6015         298.50746     -204727.41     -204727.41     -203706.48     -957.43595      275311.33      101.92948      101.92948      26.498691      25.666855      133.04778           6406 
      6600   1.6265         299.33283     -204734.1      -204734.1      -203710.35     -530.13528      275387.23      101.93885      101.93885      26.501126      27.774379      129.29133           6506 
      6700   1.6515         300.32981     -204738.73     -204738.73     -203711.58      1521.4845      275275.76      101.92509      101.92509      26.49755       26.818434      125.60554           6606 
      6800   1.6765         298.92756     -204735.4      -204735.4      -203713.03     -424.4007       275356.42      101.93505      101.93505      26.500138      26.806148      121.9193            6706 
      6900   1.7015         300.76653     -204740.35     -204740.35     -203711.7       2930.8796      275363         101.93586      101.93586      26.500349      27.523975      118.18611           6806 
      7000   1.7265         299.23884     -204731.78     -204731.78     -203708.35      1692.2191      275273.31      101.92479      101.92479      26.497471      27.048643      114.48442           6906 
      7100   1.7515         302.51935     -204740.7      -204740.7      -203706.06      1662.0034      275362.91      101.93585      101.93585      26.500346      27.577522      110.75256           7006 
      7200   1.7765         302.2617      -204745.28     -204745.28     -203711.52     -3327.9321      275350.52      101.93432      101.93432      26.499948      27.27085       107.04028           7106 
      7300   1.8015         300.45608     -204748.39     -204748.39     -203720.8      -1838.0244      275337.87      101.93276      101.93276      26.499543      27.811295      103.30164           7206 
      7400   1.8265         298.65454     -204745.8      -204745.8      -203724.37      179.16163      275451.56      101.94679      101.94679      26.503189      27.72512       99.571025           7306 
      7500   1.8515         298.4788      -204742.19     -204742.19     -203721.36     -1142.749       275472.8       101.94941      101.94941      26.503871      26.979975      95.878647           7406 
      7600   1.8765         297.8294      -204736.16     -204736.16     -203717.55      1289.9211      275390.97      101.93931      101.93931      26.501246      28.01215       92.140514           7506 
      7700   1.9015         300.4293      -204745.33     -204745.33     -203717.84     -2595.5199      275310.6       101.92939      101.92939      26.498668      27.301112      88.436071           7606 
      7800   1.9265         299.01688     -204748.82     -204748.82     -203726.16     -220.88768      275407.76      101.94138      101.94138      26.501785      27.11133       84.740339           7706 
      7900   1.9515         300.37843     -204755.56     -204755.56     -203728.24     -2558.1238      275291.43      101.92703      101.92703      26.498053      27.080671      81.045967           7806 
      8000   1.9765         300.41314     -204755.8      -204755.8      -203728.36      1134.4049      275186.39      101.91406      101.91406      26.494682      26.324059      77.379749           7906 
      8100   2.0015         298.44307     -204748.92     -204748.92     -203728.22     -1382.1749      275200.63      101.91582      101.91582      26.495139      26.75826       73.694865           8006 
      8200   2.0265         302.40345     -204761.48     -204761.48     -203727.23      2176.6075      275234.61      101.92002      101.92002      26.49623       21.824517      70.206092           8106 
      8300   2.0515         301.60388     -204765.37     -204765.37     -203733.86     -732.06783      275301.27      101.92824      101.92824      26.498368      27.464908      66.484954           8206 
      8400   2.0765         299.34577     -204763.54     -204763.54     -203739.74     -2399.2421      275282.64      101.92594      101.92594      26.497771      20.624946      63.012011           8306 
      8500   2.1015         299.54908     -204768.35     -204768.35     -203743.86      2332.7808      275292.73      101.92719      101.92719      26.498094      23.714215      59.386569           8406 
      8600   2.1265         299.69724     -204772.78     -204772.78     -203747.79      14.574937      275314.81      101.92991      101.92991      26.498803      20.549836      55.861271           8506 
      8700   2.1515         299.91065     -204774.47     -204774.47     -203748.75     -755.06775      275318.55      101.93038      101.93038      26.498923      24.147388      52.187378           8606 
      8800   2.1765         298.16162     -204764.7      -204764.7      -203744.96     -564.65008      275357.47      101.93518      101.93518      26.500172      27.332613      48.431017           8706 
      8900   2.2015         302.28257     -204771.59     -204771.59     -203737.76      3502.3557      275199.9       101.91573      101.91573      26.495116      28.141452      44.662619           8806 
      9000   2.2265         302.10697     -204771.1      -204771.1      -203737.86     -830.40376      275197.61      101.91545      101.91545      26.495042      28.026812      40.900832           8906 
      9100   2.2515         299.44361     -204768.93     -204768.93     -203744.8       2132.5203      275336.12      101.93254      101.93254      26.499487      27.890418      37.145274           9006 
      9200   2.2765         301.20914     -204782.57     -204782.57     -203752.4      -1070.5227      275217.65      101.91792      101.91792      26.495685      28.237539      33.389125           9106 
      9300   2.3015         300.35279     -204786.09     -204786.09     -203758.86     -2629.0047      275318.71      101.9304       101.9304       26.498928      27.963661      29.640633           9206 
      9400   2.3265         299.61709     -204784.17     -204784.17     -203759.45     -351.48202      275178.46      101.91308      101.91308      26.494428      27.411804      25.901216           9306 
      9500   2.3515         300.74392     -204783.72     -204783.72     -203755.14      410.55746      275308.67      101.92916      101.92916      26.498606      27.761789      22.160837           9406 
      9600   2.3765         298.34324     -204771.33     -204771.33     -203750.96     -554.30345      275298.99      101.92796      101.92796      26.498295      27.761795      18.423368           9506 
      9700   2.4015         300.54758     -204772.41     -204772.41     -203744.51      177.27584      275308.1       101.92909      101.92909      26.498588      27.534443      14.689937           9606 
      9800   2.4265         301.32806     -204775.37     -204775.37     -203744.8       3372.4051      275303.9       101.92857      101.92857      26.498453      26.682041      10.962115           9706 
      9900   2.4515         298.82281     -204773.58     -204773.58     -203751.58     -1857.6021      275338.14      101.93279      101.93279      26.499551      25.379797      7.2376897           9806 
     10000   2.4765         299.64688     -204785.48     -204785.48     -203760.66      174.0062       275252.34      101.9222       101.9222       26.496798      27.456515      3.5060806           9906 
     10094   2.5            298.89927     -204792.39     -204792.39     -203770.13      256.4748       275316.35      101.9301       101.9301       26.498852      27.26186       0                  10000 
Loop time of 372.929 on 6 procs for 10000 steps with 26460 atoms

Performance: 0.579 ns/day, 41.437 hours/ns, 26.815 timesteps/s
99.8% CPU use with 6 MPI tasks x 1 OpenMP threads

MPI task timing breakdown:
Section |  min time  |  avg time  |  max time  |%varavg| %total
---------------------------------------------------------------
Pair    | 348.54     | 351.88     | 353.91     |  10.8 | 94.35
Neigh   | 0.59419    | 0.59902    | 0.6111     |   0.8 |  0.16
Comm    | 15.644     | 17.673     | 21.006     |  48.1 |  4.74
Output  | 0.32811    | 0.35584    | 0.38342    |   3.2 |  0.10
Modify  | 1.8831     | 1.9186     | 1.949      |   1.6 |  0.51
Other   |            | 0.5079     |            |       |  0.14

Nlocal:           4410 ave        4418 max        4404 min
Histogram: 2 0 0 1 1 0 0 1 0 1
Nghost:        9854.17 ave        9876 max        9828 min
Histogram: 1 0 0 0 2 0 1 1 0 1
Neighs:              0 ave           0 max           0 min
Histogram: 6 0 0 0 0 0 0 0 0 0
FullNghs:       452259 ave      453157 max      451397 min
Histogram: 1 0 2 0 0 1 0 0 0 2

Total # of neighbors = 2713554
Ave neighs/atom = 102.55306
Neighbor list builds = 23
Dangerous builds = 0

write_restart equil.init
System init for write_restart ...
write_data    equil.data
System init for write_data ...
Total wall time: 0:06:20
