LAMMPS (24 Mar 2022)
OMP_NUM_THREADS environment is not set. Defaulting to 1 thread. (src/comm.cpp:98)
  using 1 OpenMP thread(s) per MPI task

# System init

units      metal
dimension  3
boundary   p p p
atom_style atomic
timestep   0.00025


# read data
read_data full_slab.data
Reading data file ...
  orthogonal box = (0 0 0) to (101.29907 101.29907 556.83251)
  1 by 1 by 6 MPI processor grid
  reading atoms ...
  452112 atoms
  read_data CPU = 0.823 seconds

# pair potential

pair_style hybrid/overlay eam/alloy edip/multi
pair_coeff * * eam/alloy Mishin-Ni-Al-2009.eam.alloy Al Ni NULL
pair_coeff * * edip/multi NiAlO.edip Al Ni O

mass 3 15.999


# reporting
thermo_style custom step time temp pe epair etotal press vol lx ly lz spcpu cpuremain elapsed
thermo 100

dump   1 all atom 100 generic.lammpstrj

# Single point
min_style cg
minimize 1e-5 1e-5 10000 100000

CITE-CITE-CITE-CITE-CITE-CITE-CITE-CITE-CITE-CITE-CITE-CITE-CITE

Your simulation uses code contributions which should be cited:

- @article{cjiang2012
 author    = {Jian, Chao and Morgan, Dane, and Szlufarska, Izabella},
 title     = {Carbon tri-interstitial defect: A model for DII center},
 journal   = {Physical Review B},
 volume    = {86},
 pages     = {144118},
 year      = {2012},
}

@article{lpizzagalli2010,
 author    = {G. Lucas, M. Bertolus, and L. Pizzagalli},
 journal   = {J. Phys. : Condens. Matter 22},
 volume    = {22},
 pages     = {035802},
 year      = {2010},
}

CITE-CITE-CITE-CITE-CITE-CITE-CITE-CITE-CITE-CITE-CITE-CITE-CITE

WARNING: Using 'neigh_modify every 1 delay 0 check yes' setting during minimization (src/min.cpp:187)
Neighbor list info ...
  update every 1 steps, delay 0 steps, check yes
  max neighbors/atom: 2000, page size: 100000
  master list distance cutoff = 8.28721
  ghost atom cutoff = 8.28721
  binsize = 4.143605, bins = 25 25 135
  3 neighbor lists, perpetual/occasional/extra = 3 0 0
  (1) pair eam/alloy, perpetual, skip from (3)
      attributes: half, newton on
      pair build: skip
      stencil: none
      bin: none
  (2) pair edip/multi, perpetual
      attributes: full, newton on
      pair build: full/bin/atomonly
      stencil: full/bin/3d
      bin: standard
  (3) neighbor class addition, perpetual, half/full from (2)
      attributes: half, newton on
      pair build: halffull/newton
      stencil: none
      bin: none
Per MPI rank memory allocation (min/avg/max) = 147.2 | 155.4 | 159.3 Mbytes
   Step          Time           Temp          PotEng         E_pair         TotEng         Press          Volume           Lx             Ly             Lz           S/CPU         CPULeft       Elapsed  
         0   0              0             -721934.35     -721934.35     -721934.35      22127.173      5713937.2      101.29907      101.29907      556.83251      0              0                      0 
       100   0.025          0             -1986950.1     -1986950.1     -1986950.1      249.72536      5713937.2      101.29907      101.29907      556.83251      1.4908595      6640.465             100 
       161   0.04025        0             -1989172.7     -1989172.7     -1989172.7      1751.8349      5713937.2      101.29907      101.29907      556.83251      1.163374       7303.4165            161 
Loop time of 119.509 on 6 procs for 161 steps with 452112 atoms

99.7% CPU use with 6 MPI tasks x 1 OpenMP threads

Minimization stats:
  Stopping criterion = energy tolerance
  Energy initial, next-to-last, final = 
     -721934.351890804  -1989154.39296204  -1989172.70399453
  Force two-norm initial, final = 9.0878461e+09 89.339149
  Force max component initial, final = 1.7381212e+08 14.964314
  Final line search alpha, max atom move = 0.0081401328 0.1218115
  Iterations, force evaluations = 161 286

MPI task timing breakdown:
Section |  min time  |  avg time  |  max time  |%varavg| %total
---------------------------------------------------------------
Pair    | 94.722     | 101.7      | 115.48     |  93.1 | 85.10
Neigh   | 1.2641     | 1.2774     | 1.294      |   1.2 |  1.07
Comm    | 0.25673    | 13.597     | 20.978     | 255.7 | 11.38
Output  | 0.059768   | 0.059774   | 0.059797   |   0.0 |  0.05
Modify  | 0          | 0          | 0          |   0.0 |  0.00
Other   |            | 2.871      |            |       |  2.40

Nlocal:          75352 ave       75842 max       74372 min
Histogram: 2 0 0 0 0 0 0 0 0 4
Nghost:        36795.3 ave       39019 max       32327 min
Histogram: 2 0 0 0 0 0 0 0 0 4
Neighs:              0 ave           0 max           0 min
Histogram: 6 0 0 0 0 0 0 0 0 0
FullNghs:  1.46572e+07 ave 1.49342e+07 max 1.41034e+07 min
Histogram: 2 0 0 0 0 0 0 0 0 4

Total # of neighbors = 87943240
Ave neighs/atom = 194.51649
Neighbor list builds = 3
Dangerous builds = 0

# Thermalisation

velocity all create 300 1 mom yes rot no

fix 1 all npt temp 300 300 $(100.0*dt) iso 1.0 1.0 $(1000*dt)
fix 1 all npt temp 300 300 0.025000000000000001388 iso 1.0 1.0 $(1000*dt)
fix 1 all npt temp 300 300 0.025000000000000001388 iso 1.0 1.0 0.25

run  5000
Per MPI rank memory allocation (min/avg/max) = 139.3 | 146.8 | 150.3 Mbytes
   Step          Time           Temp          PotEng         E_pair         TotEng         Press          Volume           Lx             Ly             Lz           S/CPU         CPULeft       Elapsed  
       161   0              300           -1989172.7     -1989172.7     -1971640.7      5029.1229      5713937.2      101.29907      101.29907      556.83251      0              0                      0 
       200   0.00975        247.01628     -1986037.9     -1986037.9     -1971602.2      1082.2113      5729009.6      101.38806      101.38806      557.32169      2.4312233      2040.5367             39 
       300   0.03475        70.32041      -1975244.6     -1975244.6     -1971135.1     -11.154         5748242.1      101.50139      101.50139      557.94464      2.3582071      2043.9423            139 
       400   0.05975        163.27435     -1979997.7     -1979997.7     -1970455.9      156.72789      5745103.5      101.48291      101.48291      557.84307      2.3895197      1997.9431            239 
       500   0.08475        168.45785     -1979282.2     -1979282.2     -1969437.5      259.29083      5748187.2      101.50106      101.50106      557.94287      2.3890574      1954.5035            339 
       600   0.10975        215.68339     -1980904       -1980904       -1968299.4      569.10773      5747468.6      101.49683      101.49683      557.91962      2.3757375      1914.2229            439 
       700   0.13475        178.43444     -1977544.1     -1977544.1     -1967116.4     -189.32859      5753868.4      101.53449      101.53449      558.12662      2.3949186      1870.4799            539 
       800   0.15975        214.30917     -1978435.9     -1978435.9     -1965911.7     -130.96453      5754636.5      101.53901      101.53901      558.15145      2.3328252      1834.9441            639 
       900   0.18475        216.26534     -1977257.7     -1977257.7     -1964619.2     -14.724088      5756288.6      101.54872      101.54872      558.20486      2.3136682      1799.4709            739 
      1000   0.20975        231.24435     -1976821.9     -1976821.9     -1963308       -246.76762      5759719.5      101.5689       101.5689       558.31574      2.2612367      1767.121             839 
      1100   0.23475        249.40416     -1976572.9     -1976572.9     -1961997.7      420.80937      5758238.3      101.56019      101.56019      558.26788      2.3120236      1728.0408            939 
      1200   0.25975        249.05382     -1975230.9     -1975230.9     -1960676.3     -405.46871      5763674.8      101.59214      101.59214      558.44351      2.2839395      1690.1851           1039 
      1300   0.28475        271.16243     -1975262.9     -1975262.9     -1959416.1      84.086616      5762609.2      101.58588      101.58588      558.4091       2.3221089      1648.8488           1139 
      1400   0.30975        267.34908     -1973810.7     -1973810.7     -1958186.9     -254.46744      5765968.2      101.60561      101.60561      558.51757      2.2711007      1610.1695           1239 
      1500   0.33475        296.11831     -1974394.7     -1974394.7     -1957089.5      66.025717      5765150.4      101.60081      101.60081      558.49117      2.2628227      1571.1312           1339 
      1600   0.35975        286.41311     -1973005.5     -1973005.5     -1956267.5     -50.563942      5766185.2      101.60689      101.60689      558.52458      2.2858096      1530.2768           1439 
      1700   0.38475        303.91378     -1973159.4     -1973159.4     -1955398.7      3.4581586      5765278.9      101.60156      101.60156      558.49531      2.2574897      1490.2805           1539 
      1800   0.40975        299.41193     -1972614.3     -1972614.3     -1955116.7     -258.37322      5765555.7      101.60319      101.60319      558.50425      2.3029454      1447.9665           1639 
      1900   0.43475        303.79625     -1972714.9     -1972714.9     -1954961.1     -43.831098      5763696.5      101.59227      101.59227      558.44422      2.1416341      1411.6581           1739 
      2000   0.45975        302.28486     -1972813.9     -1972813.9     -1955148.4     -20.863484      5761241.1      101.57784      101.57784      558.3649       2.2054901      1371.8966           1839 
      2100   0.48475        299.77664     -1973056.7     -1973056.7     -1955537.8     -64.721803      5758998.8      101.56466      101.56466      558.29245      2.2907402      1328.8958           1939 
      2200   0.50975        298.94634     -1973322.8     -1973322.8     -1955852.4     -3.5704318      5757198.2      101.55407      101.55407      558.23426      2.2055995      1288.278            2039 
      2300   0.53475        296.04008     -1973275.2     -1973275.2     -1955974.7      29.432762      5755492.9      101.54405      101.54405      558.17914      2.0476054      1251.898            2139 
      2400   0.55975        300.85676     -1973330.9     -1973330.9     -1955748.8     -6.73042        5754023.4      101.5354       101.5354       558.13163      2.2766284      1208.3469           2239 
      2500   0.58475        300.17868     -1973117       -1973117       -1955574.6     -156.58716      5752460.3      101.52621      101.52621      558.08109      2.2811372      1164.665            2339 
      2600   0.60975        299.96318     -1972964.9     -1972964.9     -1955435.1      93.3806        5751042.3      101.51786      101.51786      558.03523      2.3120513      1120.3549           2439 
      2700   0.63475        302.15489     -1972989.5     -1972989.5     -1955331.6     -32.835638      5749823.1      101.51069      101.51069      557.99579      2.3063309      1076.2322           2539 
      2800   0.65975        301.54296     -1973085.5     -1973085.5     -1955463.4      223.49509      5747977.1      101.49983      101.49983      557.93607      2.335396       1031.6846           2639 
      2900   0.68475        298.18177     -1973136.6     -1973136.6     -1955710.9      8.4755142      5746579.3      101.4916       101.4916       557.89084      2.2982946      987.83379           2739 
      3000   0.70975        300.23519     -1973349.2     -1973349.2     -1955803.4      19.313503      5744620.3      101.48006      101.48006      557.82744      2.3343044      943.49604           2839 
      3100   0.73475        298.44561     -1973317.3     -1973317.3     -1955876.2     -86.471577      5743313.1      101.47237      101.47237      557.78512      2.3144797      899.51758           2939 
      3200   0.75975        298.63994     -1973245.1     -1973245.1     -1955792.6     -92.852038      5743602.1      101.47407      101.47407      557.79448      2.3178694      855.54916           3039 
      3300   0.78475        302.23844     -1973271.7     -1973271.7     -1955608.9      95.31429       5742001.7      101.46464      101.46464      557.74266      2.3509389      811.27354           3139 
      3400   0.80975        299.1056      -1973066.3     -1973066.3     -1955586.6      3.0234101      5742144.3      101.46548      101.46548      557.74728      2.2711592      767.91769           3239 
      3500   0.83475        301.70496     -1973175.7     -1973175.7     -1955544.1      6.1570848      5741559.8      101.46204      101.46204      557.72836      2.2233212      724.99271           3339 
      3600   0.85975        298.47032     -1973052.9     -1973052.9     -1955610.3      81.674655      5741495        101.46166      101.46166      557.72626      2.270018       681.52838           3439 
      3700   0.88475        302.00174     -1973253.9     -1973253.9     -1955604.9      63.62038       5741544.3      101.46195      101.46195      557.72786      2.3131849      637.69142           3539 
      3800   0.90975        298.13994     -1973150       -1973150       -1955726.7      241.60866      5740725.7      101.45712      101.45712      557.70135      2.3136567      593.88451           3639 
      3900   0.93475        299.75262     -1973227.5     -1973227.5     -1955710        195.57846      5740798.3      101.45755      101.45755      557.7037       2.3168514      550.0888            3739 
      4000   0.95975        301.5192      -1973280.9     -1973280.9     -1955660.1      76.290971      5740640.8      101.45663      101.45663      557.6986       2.2878233      506.49172           3839 
      4100   0.98475        298.64225     -1973168.9     -1973168.9     -1955716.3      26.809779      5741393.7      101.46106      101.46106      557.72298      2.2373185      463.15471           3939 
      4200   1.00975        301.68799     -1973327.2     -1973327.2     -1955696.6     -55.560374      5741317.6      101.46061      101.46061      557.72051      2.2394743      419.74014           4039 
      4300   1.03475        299.34285     -1973276.2     -1973276.2     -1955782.6     -175.29577      5742187.2      101.46573      101.46573      557.74867      2.2529512      376.21015           4139 
      4400   1.05975        300.08263     -1973371.3     -1973371.3     -1955834.5     -51.205185      5742587.3      101.46809      101.46809      557.76162      2.2207099      332.75545           4239 
      4500   1.08475        299.14968     -1973343.2     -1973343.2     -1955860.9     -40.639151      5743516        101.47356      101.47356      557.79169      2.1883551      289.32953           4339 
      4600   1.10975        300.90836     -1973418.7     -1973418.7     -1955833.6      47.996827      5744219.7      101.4777       101.4777       557.81447      2.1554684      245.88943           4439 
      4700   1.13475        299.42612     -1973353.5     -1973353.5     -1955855.1     -24.799086      5745700.4      101.48642      101.48642      557.8624       2.2133961      202.19587           4539 
      4800   1.15975        300.31118     -1973399.6     -1973399.6     -1955849.5      46.346887      5746765.4      101.49269      101.49269      557.89686      2.2362913      158.40226           4639 
      4900   1.18475        300.41006     -1973429.1     -1973429.1     -1955873.1      14.859671      5748562.3      101.50327      101.50327      557.955        2.2308655      114.57567           4739 
      5000   1.20975        299.6178      -1973451.9     -1973451.9     -1955942.3      14.218612      5749572.7      101.50922      101.50922      557.98769      2.1953529      70.731909           4839 
      5100   1.23475        299.95776     -1973508.3     -1973508.3     -1955978.8      173.86424      5750906.3      101.51706      101.51706      558.03083      2.2281084      26.810758           4939 
      5161   1.25           299.68852     -1973500.6     -1973500.6     -1955986.8      194.25157      5751787.4      101.52225      101.52225      558.05932      2.2332682      0                   5000 
Loop time of 2198.11 on 6 procs for 5000 steps with 452112 atoms

Performance: 0.049 ns/day, 488.468 hours/ns, 2.275 timesteps/s
99.7% CPU use with 6 MPI tasks x 1 OpenMP threads

MPI task timing breakdown:
Section |  min time  |  avg time  |  max time  |%varavg| %total
---------------------------------------------------------------
Pair    | 1758       | 1880.9     | 2119.1     | 387.9 | 85.57
Neigh   | 9.7712     | 9.9424     | 10.114     |   3.7 |  0.45
Comm    | 5.7863     | 246.25     | 370.41     |1079.0 | 11.20
Output  | 2.9453     | 3.1628     | 3.3701     |   8.3 |  0.14
Modify  | 50.322     | 51.724     | 54.078     |  16.7 |  2.35
Other   |            | 6.091      |            |       |  0.28

Nlocal:          75352 ave       75842 max       74452 min
Histogram: 2 0 0 0 0 0 0 0 0 4
Nghost:        37373.5 ave       40054 max       33067 min
Histogram: 2 0 0 0 0 0 0 0 2 2
Neighs:              0 ave           0 max           0 min
Histogram: 6 0 0 0 0 0 0 0 0 0
FullNghs:  1.42226e+07 ave 1.44842e+07 max 1.37235e+07 min
Histogram: 2 0 0 0 0 0 0 0 0 4

Total # of neighbors = 85335404
Ave neighs/atom = 188.74837
Neighbor list builds = 22
Dangerous builds = 0

write_restart equil.init
System init for write_restart ...
write_data    equil.data
System init for write_data ...
Total wall time: 0:38:41
