LAMMPS data file via write_data, version 24 Mar 2022, timestep = 1500001

1728 atoms
2 atom types

0.3086378728725361 24.99107906712744 xlo xhi
0.3086378728725361 24.99107906712744 ylo yhi
0.3086378728725361 24.99107906712744 zlo zhi

Masses

1 58.71
2 15.999

Atoms # atomic

449 1 3.0734853473952213 1.436471630025649 2.611941509220505 0 1 0
1207 2 2.6988487389860136 5.63207368841655 2.8944905230015197 0 0 0
601 2 3.6563654859016594 4.345957477621194 4.0848458987283385 0 1 0
167 2 2.9181734370251715 3.7457159239396463 2.3746087941616523 0 1 0
1399 1 3.431863787659255 5.190457681825 6.650820700786924 0 0 0
419 2 3.6010343410227006 6.271123672731135 4.333740733659104 1 0 0
11 1 1.208162642983062 3.757183734341866 0.6503607213995493 -1 0 0
565 2 1.3103300069045187 1.9112745995322729 2.692911713175091 1 0 0
1192 2 2.9045733522457304 1.441884672347798 5.347037987500023 0 -1 1
754 1 3.1199745172548563 3.1593497203872407 5.546961759239862 1 1 0
1652 2 1.9935494127036533 3.0856567416847174 4.060690703381477 1 0 0
1303 1 5.02389905151508 5.446018615082715 3.3034240959040178 0 1 0
1709 2 1.4676546513207265 2.6325830188646555 6.443198635937411 0 0 1
286 1 1.511354911932863 4.400075928417622 2.9926285852208947 0 0 0
1359 1 3.576770973260037 5.171102863620986 1.2791442754678093 0 1 1
1007 2 3.169425281374328 2.1643630337161115 0.9944560497747373 0 1 0
404 2 1.5722365856820326 4.689486494028848 6.703065464233249 1 0 1
1362 1 1.451368847272616 5.539156814044777 5.217017601689285 0 0 1
667 1 2.74731290498763 1.3530199412633406 7.258654962213611 1 1 -1
121 2 4.922920013349368 3.2639903672366075 5.374855760817015 0 0 0
1066 2 1.6323808367310046 5.463801100453142 0.8740604614042521 0 0 0
1485 2 24.618976663587517 0.5141840605856927 7.7973527327958445 -1 1 0
97 1 0.9821142503028035 0.7378459789799555 4.650788281655517 0 0 0
1496 2 4.168203718721697 12.30368938587057 1.4924648834557463 0 0 1
1071 2 24.507588342719167 4.793866635288721 1.3670799702602918 -1 0 1
1377 1 3.4794560238058425 2.916559706614513 8.39627411004123 0 1 0
216 2 7.782458782305806 11.770740309250625 2.182619049332126 0 0 0
1265 2 13.174593089514053 9.56431707231814 0.48502367562068804 0 0 1
1520 1 5.708570236049837 2.1133299228576568 7.532171459889697 0 1 0
1236 2 6.91383317277387 3.1323123988948653 5.309691710130679 1 0 1
234 1 6.431064731109308 4.641195695340817 4.449839272726838 1 1 0
1413 2 8.547060840660704 4.265218944182306 6.492003922592107 -1 1 0
1707 2 5.030303330127452 3.606687978922854 3.0965503418101576 0 0 1
1167 1 4.904940198501417 2.939774089461927 1.40191204128708 1 1 1
409 2 8.368632702290062 3.980468159908179 0.5428473493429499 1 0 0
408 2 7.861501258666471 4.53674996690008 2.3110448804799715 0 -1 0
1370 1 7.911550312242507 2.569015910565576 3.3462865186257873 0 0 1
650 1 9.592291075346338 4.502331668841728 2.4882847478476746 0 0 0
642 2 7.4634892893415 0.8678765524922697 3.7211431916971835 0 1 0
92 1 9.095920819060552 2.886041523525608 5.521860312754375 0 0 0
433 1 8.046394569028465 0.4244565532357132 6.348243564329209 -1 1 0
1712 2 9.372501915549861 2.6422366170102514 2.890477908745084 0 0 0
1454 2 6.765334524094539 2.942858430279977 1.7406423004345073 0 1 0
1301 1 5.092996402452271 1.4104441079961187 4.357600384148133 0 1 1
1029 2 9.560067943157167 6.001235886654144 3.57134358547603 0 -1 1
30 1 13.442596066059394 0.3264405971553029 6.613616920307955 -1 0 0
474 1 5.981225800649694 4.591919169743702 6.57832813485406 0 1 -1
957 1 6.398299596391055 5.284727471210928 0.7093703140658598 0 0 1
177 2 22.547663788651683 7.173641659814954 0.6342097964426381 -1 0 0
1700 2 6.133798200995269 5.974871436836743 5.46028259686225 1 1 0
1159 1 9.597450152975606 5.9343215556948925 6.031988752103914 0 0 0
561 2 9.311578550465342 5.781736847860217 1.467834191951135 0 1 0
843 2 8.1454837924694 5.138770961750945 4.720768510071702 0 1 0
1278 2 7.443214924785349 1.8534869537885117 7.1661582372297055 0 0 0
1515 1 17.495568061010594 12.246874242029223 8.31103894634488 0 0 1
208 2 6.712473199329087 0.9233891995172667 1.8311677262194948 0 0 0
681 1 8.1573264459476 4.110684588280272 8.139591979409008 0 1 0
398 2 22.21827106759094 0.5531344256672399 5.631323636225408 0 0 0
1495 2 9.304878289087773 2.3127594284591697 8.25450039941337 0 1 1
161 2 9.788436776445858 4.201642689331575 4.335950489192026 0 0 0
983 2 10.359319181291841 3.4757531862727045 1.102412121103033 0 0 1
1015 2 10.380528213674593 1.5782131703855258 1.5889357749247954 0 0 1
1332 1 11.795761415318482 2.060110712806913 6.5671608052443915 0 1 0
1427 2 11.310373159993759 2.910124540844632 2.6779170711562577 0 0 1
132 2 13.012676122759954 1.5804635884468112 7.652104463132556 -1 0 0
282 1 11.53888589786676 6.408678482102899 4.287240589899165 0 -1 0
1367 1 11.507045975934819 3.6594856139488323 4.547503510650118 0 0 1
937 1 13.712268647145192 4.202070580018839 2.371656917405589 0 0 0
1357 1 10.682947023547957 4.095954756149496 7.7763373582097906 -1 1 0
133 2 14.265693988659898 3.015291780438625 7.242596945876177 0 1 1
773 2 12.567698579029068 1.355938229857328 3.2955155052409295 0 1 1
1197 2 11.06678771301295 5.265591461417239 5.485216841969471 0 -1 1
563 2 12.963955056602188 5.49708369960861 4.983213798073089 0 -1 -1
888 1 13.270050667617545 11.58049050922488 0.6907746260914938 0 -1 1
1364 1 13.374554018158497 3.823931225216413 5.896809116795104 0 1 0
1500 2 12.18265087963044 4.604961541017706 3.1641344688916297 0 1 1
501 1 14.030764067489294 2.963935595767993 4.086555676546398 0 1 0
713 1 14.591791800781472 5.6160813907991685 6.801143781164105 0 0 0
52 1 13.485951485623549 2.074506829525026 1.8094194940323143 0 0 0
925 1 10.662140769121159 1.7171660292431232 3.8312669845631233 0 0 0
735 1 0.7897989689910363 1.4021002739930486 0.8814052610216339 0 0 0
72 1 21.336157836184185 12.14986894458883 0.3859527306182087 0 0 0
863 2 14.90563616423531 5.541474517981088 5.0499532260686175 0 0 0
1112 1 23.884719935446014 0.7549331054593633 2.3296323698465855 0 0 1
1325 1 6.985806524529655 11.00489927247844 3.5187311874151703 0 0 1
326 2 13.92852732115941 7.171234162232441 4.7014236921694526 0 0 -1
325 2 12.269823615837385 4.729839579793027 6.971572010154753 0 -1 0
365 2 14.500885920170242 6.571081783707038 1.752677292737054 1 0 0
182 2 15.896141886148483 0.7147018903413304 2.0195207441944962 -1 0 0
659 1 8.698689438952037 2.021353249998183 0.42722297344043925 1 0 0
383 2 15.472824637424184 2.383701419414584 3.2802389294110634 0 0 0
485 1 14.969721411676254 0.5082295507372251 3.6488960167836613 -1 1 0
516 1 15.421477263197156 2.005473997158486 7.9128483936425225 0 0 0
332 2 16.05736485650079 3.6205078740130343 7.983054138888142 0 0 0
107 1 15.406381780224798 4.168429541588477 0.5947344604456721 -1 0 0
974 2 15.08445685946923 1.8269155303710323 5.085280538303273 0 0 0
1288 2 20.49850876860563 2.077541279923169 1.8901010006753627 0 0 1
1003 2 15.207644200106024 2.4414450346011067 1.362694433888297 -1 0 1
692 1 17.21019489442252 3.339315776390399 2.8353627812340307 0 1 0
497 1 18.302319817917272 0.6866161373540467 7.273818084703031 0 1 0
1401 1 15.831200407616492 5.022600964808 3.232010755525001 0 1 1
6 1 15.79199603197558 4.16071374119278 5.567818982374577 0 1 0
372 2 17.792435951951497 4.844854723992157 1.4401898784458682 0 0 0
741 1 19.00601951098583 3.1755082892723334 6.764258514334341 0 1 0
761 2 17.30884990184076 3.476675417679248 4.707080612409561 -1 1 0
966 1 16.727105559440204 1.89282740474558 5.728798863589329 -1 0 1
1584 1 17.67034532087343 0.7619655628233986 4.033017049501107 0 1 1
476 1 18.488057466625115 5.715848922156619 2.825341953537757 -1 1 0
532 1 19.58736444687785 4.0411566177254095 0.7315682720382111 0 0 0
244 1 17.265968428805294 1.5296268531510449 1.2938359290524812 0 0 0
1403 1 18.15855715931871 5.380012917636634 5.973825655281566 -1 1 0
617 2 16.266728885101934 5.791279171102784 0.43655665172999025 -1 0 1
654 1 16.86765703937906 6.018522278401605 8.462453350173902 0 1 0
499 1 19.921195155452708 9.053303058859646 5.4682567375807105 -1 1 0
1289 2 17.833356985883228 4.325473813856783 7.530712041626447 0 0 0
1620 1 19.429137369672752 1.9360453452030593 4.70403632279981 0 1 1
782 2 24.705774987337257 3.552249099441692 2.999221655888045 -1 1 0
1581 1 22.626754579864844 1.5945707776423443 0.9691754795078904 0 1 1
676 1 20.604943277712252 0.962628866213338 7.852421363332901 0 1 0
108 1 0.5064330553059866 3.160039102135811 4.998745252955036 0 0 0
1275 2 20.441905132701145 1.3931702336353602 5.982061253942846 0 0 0
1693 2 23.592278096283913 3.0416463842269446 1.458968623768201 0 1 0
1041 2 20.87932919748401 4.6708742954893125 7.486147249346091 -1 -1 1
1571 1 21.492668055911572 5.765275258311294 0.8998591390787499 1 0 1
541 2 23.658942659474818 3.929794860813435 5.259235910424049 -1 0 -1
1563 1 21.083543886519877 3.040286796087232 6.179818803521401 0 0 1
759 2 3.59822153315413 11.370098504273361 8.017687779795875 1 1 0
1497 2 21.03987598088844 5.219097172430393 2.4528600449982974 -1 1 1
98 1 20.971648858033262 3.5316891862958095 2.9358671364683797 0 0 0
73 1 23.18878869680892 3.9649383431785585 2.772353033151778 0 0 0
1021 2 21.865399967226566 4.187764803292936 4.320965708322811 0 0 0
253 1 24.07777702133985 5.600635235218167 5.981744406297766 -1 0 -1
462 1 22.54164411243977 2.6176939444240777 4.979220281427066 -1 0 0
804 2 22.4175598292616 5.541386436467245 6.479211756273753 0 1 1
267 1 19.31181234070187 5.029817791618005 4.374517935807718 0 0 0
954 1 21.59013845806244 6.555907541700019 5.395515043884965 -1 0 1
1024 2 20.912883271596293 1.9648642207391578 3.7791424032084553 0 0 0
1356 1 24.431667307022472 6.064142378245828 3.6793714468737506 -1 0 1
814 2 24.388781611433885 3.8681637102804634 7.451926876063515 0 0 -1
1283 2 24.345584761497733 1.0641378335838736 5.899378391865811 0 0 0
544 2 24.315314758124153 1.683419026267984 3.7903853803830136 -2 1 0
760 2 21.42774534849986 3.6778679508265872 1.2164736997603671 0 0 0
1243 2 0.6006560333264096 12.339568465274246 6.773611301128483 0 -1 0
1047 2 23.645654306041358 6.443843077687713 2.047963909174716 -1 0 0
504 1 21.889724336570296 6.771333504639608 2.974575786019312 -1 0 1
488 1 22.283334520162043 5.534196661837242 8.292024897144863 -1 0 1
883 1 23.958594280921538 1.994131165903931 7.495825446027783 -1 0 0
1667 2 22.43032018674245 3.130030709582043 7.483521902903197 -1 0 1
818 2 1.9448888813046579 7.2969268872965936 4.17778115061051 0 0 -1
75 1 1.4817661110982878 6.310537271804538 7.485779077920254 0 0 -1
597 2 3.4249430529624427 8.43999362900826 3.5119002238492296 -1 0 0
1671 2 2.776656773721979 11.813208303739497 6.067587938203986 1 1 1
1045 2 2.8596162842312753 6.763140106530605 6.054459563201964 0 0 0
324 1 0.9480040303407631 8.08087937903953 2.907005591295339 1 0 0
1566 1 2.299103508332599 9.733297106649582 3.7146578208889602 1 0 1
827 2 2.375511906909931 11.617207787262254 0.890846478718737 1 0 0
825 2 1.0559077656542937 11.304327769459258 2.38952261262103 1 0 1
1526 1 1.9572136229564152 11.80664073192607 3.990312141549262 0 0 0
897 1 1.1428831584093968 10.387381995762276 5.432009300348634 0 0 1
1079 2 2.1329041789556618 8.861637168197099 5.375907275866027 0 -1 0
60 1 4.083242975449155 11.645292480840983 4.8153069573487635 0 0 0
1358 1 3.417726129435523 10.706761458624246 1.8519095514861665 0 1 1
1706 2 4.578103919614883 10.046856154512392 2.9708340454351747 0 -1 0
518 1 4.179627610413627 8.931725303420432 6.934581253907933 0 1 0
146 2 1.7387016943157265 8.872671147494273 7.68766057394988 -1 0 0
370 2 3.636312606534058 10.01765225177169 5.662107814516812 1 0 0
909 1 2.2159934000775117 10.578718745586936 7.483606857306733 0 0 0
88 1 4.502455496757177 7.749897806999203 4.6693864237138865 0 0 0
933 1 2.7861087125875845 8.138488763679177 1.6212697537362444 0 -1 1
1650 2 18.062689120191855 12.648260469956446 4.360266307945416 0 0 1
1232 2 1.2055951433816627 9.236063534236553 1.5456410262388145 1 0 1
1713 2 0.5069937601116492 11.939956912691144 4.867815470894046 0 0 1
367 2 3.0469714871032023 6.89292714907271 8.187964471546332 0 1 0
1560 1 20.327683831940874 11.011173807079587 3.7045381105628636 0 0 1
1244 2 6.756487052683531 7.782710997931221 3.6162514669166943 0 0 0
788 2 23.430713868511475 12.232832082241577 0.8776078769406823 0 0 0
600 2 6.84877964576267 10.150095280691401 8.158807105074185 0 0 0
855 2 20.092648585067828 12.467899205374064 6.688405746358769 0 1 0
1625 2 10.621585098591924 11.102224203947685 6.8509928691434485 0 0 0
430 2 9.417335080895038 8.7724110950978 1.214250616293114 0 1 0
1310 1 5.728227520591683 9.604748235219366 4.306512972361762 0 0 1
949 1 8.55829570932099 11.048646168818616 6.720601057134783 0 0 0
1082 1 6.303537853718674 8.54019659649834 7.208116743311875 0 0 0
1705 2 7.356882572566136 10.991155392620845 5.39320879751279 1 0 0
22 1 5.27840519726592 7.3998240682996865 2.374201044291597 0 -1 0
895 1 7.918095066501746 6.345427396886656 3.5162885968709996 0 0 0
1237 2 7.072079062087724 7.804414742183202 5.58374226894591 0 0 0
327 2 5.819253810326387 12.17267366907159 4.2663819617021215 0 0 0
1140 1 8.416812422921193 7.598952877966461 1.7134144212154925 1 0 1
54 1 9.361881238609264 6.936541607492919 8.024443994648845 0 1 0
1206 2 6.436485830177883 10.387246176386913 1.9448930215429454 0 -1 1
350 2 8.719166823783192 7.434748458514 6.479139077580853 1 0 0
628 2 8.291768822477195 9.0400786749733 2.9581193539190562 -1 1 0
903 1 8.157649270666905 9.44235271770309 4.813363637822684 0 0 1
78 1 5.324269745693246 11.049536635042015 1.056011569267398 0 0 1
7 1 7.865987867967947 9.76684627130196 1.0867833088033183 0 0 1
512 1 21.92241139179945 9.008861851637917 3.5309283020445723 -1 1 0
1306 1 15.476728659685548 12.070750299672154 4.467929073306323 0 0 1
487 1 7.335103998882443 6.380024235909402 6.643214827031882 0 0 0
221 1 10.822515713482403 9.544883674077921 5.993935548009737 0 0 0
1267 2 10.04552043120508 10.177898235211329 2.548133970977923 1 0 1
233 1 9.470441180936065 10.945672292320333 3.9571571763200506 0 0 -1
965 1 5.120709555234593 11.491588623251278 7.015073836567938 0 -1 0
913 1 5.290195609429483 6.510083107397985 7.662535303100361 0 0 0
168 2 16.719181328837493 0.6720201490637996 8.214115362767068 -1 0 1
293 1 19.540633731961584 0.55038075215218 2.279629271470558 0 0 0
1052 2 10.90995592754028 6.879815389703047 6.701135891344308 0 1 1
1219 2 11.086518820182361 9.847207801906723 0.9650480637573465 1 0 0
1564 1 21.102799543474994 10.141955748170144 7.260371603778762 0 1 0
1653 2 12.547571256866043 11.668488289553105 5.773073147930878 0 0 1
70 1 23.379436253091832 11.323161752062358 5.101235293851589 -1 0 0
1175 1 12.517205255423221 6.556554827913206 1.5024325417459106 0 -1 1
385 2 21.06708448772433 8.975757358466435 1.8063824034915859 0 0 0
584 2 12.512831012361575 11.087126989478234 7.741372139813196 0 0 0
1386 1 11.927366788404122 8.574742175885806 1.2305209818729659 0 0 1
594 2 11.117840054261999 6.873143595091384 2.8050123582023136 -1 1 0
374 2 11.221446738975498 8.519398366144795 7.769875835449037 0 0 0
68 1 12.735242284417177 6.505405983670003 6.947999162731457 0 -1 1
486 1 11.537632407153037 11.104215242214334 2.209137341396671 0 0 0
1703 2 10.577438249737115 8.054651267647039 5.201392317950537 0 0 1
683 1 10.987570087721389 8.791189397457165 3.535190824964389 0 0 0
684 1 13.335431977095466 9.948323735972272 2.8272742351142996 0 1 0
1542 1 13.00949152438184 8.752331509938406 5.039770803384617 0 0 1
599 2 13.203736387074258 6.251649984032814 3.1437032411406274 0 0 1
1123 1 11.063246755002524 10.278997806373228 8.408044841251634 0 0 0
136 2 13.018173011879052 9.823896482813801 6.406707490418549 -1 0 0
685 1 11.380144384259244 10.885014027720906 4.5454679873759005 0 0 0
1388 1 14.780942193587707 11.288438895987941 6.758323417066355 -1 0 1
192 2 13.099599773686313 10.365975826914772 4.401812225218154 -1 0 0
201 2 13.540628181110144 8.313892730203884 2.0867062115979973 -1 0 0
304 1 11.825141832622734 4.192880502576173 0.7328811582395106 0 0 0
716 1 15.369304274335626 7.488096323836968 3.411211978434288 0 1 0
359 2 23.467991775593084 8.394989921017126 1.7197721534940884 0 -1 0
709 1 13.637293650282698 8.49661698270664 7.661588918343153 0 0 0
922 1 19.453027584002875 5.886824917400966 7.739088862492765 -1 0 1
707 1 17.93760591852029 7.720803837619377 1.7682197389502747 -1 1 0
1204 2 20.125489794478824 7.575103111935484 4.48780743438642 0 0 0
1004 2 13.834946004004895 12.092632989103217 4.373786126436935 -1 0 1
1437 2 19.369585028932164 11.45060844734917 2.310175819363542 -1 0 1
1677 2 23.19532124929342 9.159266631339676 4.823365683556849 -1 0 0
1523 1 15.938562737237628 9.963189755244816 8.242980982642521 0 0 0
373 2 17.04241980124685 8.75483506492085 0.6908029485281311 0 0 0
651 1 15.014792392169648 7.903442838907476 6.067570265129456 0 0 0
1536 1 15.762767523460257 9.913704723579771 3.86717991344951 0 0 1
378 2 22.36305915809867 11.662524850609605 6.353193503113183 0 0 0
585 2 17.892500573613532 10.199642884676356 1.714898980612902 -1 0 1
140 2 16.735635999243655 6.236287337252481 6.606354298957269 0 0 0
620 2 16.806287595009536 5.623721726017826 4.644378312575114 0 0 0
489 1 17.75405564262048 11.244109109431093 3.31590763446339 -1 0 0
156 2 16.24227826955677 8.123321363037856 8.091550744535278 0 0 0
353 2 16.226998130826892 10.874961090998449 2.441342523579766 0 -1 0
48 1 15.661892233220915 9.52271991065433 1.280726981810457 -1 0 1
978 2 14.373298886254918 10.741450781664884 1.7829410039704023 0 0 1
1128 1 18.45366394488761 7.581126768316809 5.333232616080958 0 0 0
266 1 18.07537001861271 9.024210391305578 3.808472687820893 0 0 0
265 1 17.8217064813876 12.066523911203703 6.042473949534824 0 1 0
1511 2 16.31809287207887 7.178356735781281 2.0222750847239603 0 1 0
1673 2 15.238867023131837 9.819151044602235 5.673907176154873 0 1 0
598 2 18.92750222981492 10.952769888126126 6.934753389459155 -1 1 1
1022 2 18.275961200432285 10.390169734379752 5.089305987289573 -1 -1 1
1198 2 18.07510935980092 6.908738464282288 7.7124323594637945 0 0 0
1188 1 24.493558495293357 11.013747287102163 7.512767280205451 -1 0 0
1261 2 15.779835190766931 11.06227092378439 0.4898487477394241 0 -1 0
1158 1 18.004506679875576 9.597469868462097 7.34618028053617 0 0 1
967 1 20.370864253735107 12.28414438669031 8.350920038952951 -1 0 0
1067 2 19.93665670101909 9.172793819039336 8.053152754042014 -1 0 0
492 1 23.424938863793976 10.030128630650108 1.5658867661399094 -1 0 1
688 1 24.28846906772897 10.363470798964322 3.0176742198471307 0 0 0
1171 1 24.531880130281003 8.121192887687318 8.10152046923508 0 0 0
503 1 22.40243342398641 8.512085514217345 6.018797454903899 -1 1 0
418 2 21.06081958214623 10.479689023701988 5.3255029546920545 0 -1 0
416 2 24.12783159783681 8.016395390069041 6.520563746678479 0 0 0
93 1 19.395402077906127 9.125622357525318 1.673961874378888 -1 0 0
1247 2 8.638783630688401 0.3973007189036508 0.6482883107887364 0 0 0
959 1 21.816876623245946 7.745025431389149 8.060887138685963 -1 1 0
481 1 0.3097493646370637 7.519112797549492 1.2182536582313817 1 0 1
162 2 21.09671584125759 10.907367218526812 1.5895781469687766 0 0 0
1017 2 24.555328517891837 6.288760387089526 7.751575999809365 -1 1 1
542 2 20.644734618711873 7.076079779097627 6.8265145701100085 -1 1 0
1011 2 24.294293778933067 10.089836302935245 6.16095118890932 -1 0 1
71 1 22.58196674040242 11.60269978632814 2.858206431972097 -1 0 1
57 1 0.7423707164021345 8.112533343671638 5.344634304568605 0 0 0
631 2 23.851171260098063 7.650491577828536 3.6145214503585916 0 0 0
842 2 11.50214178698947 2.637012060038978 8.304064958055559 -1 1 0
1296 2 1.4727839722433747 0.5892368662786761 6.508295116554884 1 0 0
878 1 8.54840551311118 9.494194108302766 7.836924049348413 0 0 1
1279 2 15.812920693731623 0.42267333819974257 6.272869473767141 1 0 0
803 2 15.617914773577203 11.800147416407778 8.239942917330664 0 0 -1
1070 2 8.01787988180615 12.196131391700323 7.9431220510650995 0 0 0
1065 2 6.76099429827442 6.117834997224469 8.5161895369724 -1 0 1
882 1 22.48578975229811 10.398986410122857 8.509021497496903 -1 0 1
1657 2 12.059307317166738 2.4223815559495465 0.898899968911141 1 0 1
564 2 12.442019622592221 12.469658666805142 2.909353043344777 0 0 0
258 1 24.857693878243616 12.607994067213518 2.3981305261559487 0 0 0
1613 1 16.7882387124247 12.627350277673514 0.4995290694991069 1 0 1
1208 2 4.452517746958201 4.3023208319737005 8.523027238117285 0 0 0
551 2 2.882912646356274 4.022618140454888 0.34481828164783934 0 0 0
567 2 0.5018792486856423 11.31493412543658 0.4688523649085923 0 1 0
1480 2 18.990829300271557 6.17955007952874 0.37950095371602544 0 0 1
386 2 2.964615136838287 6.388796245921956 12.489109438275982 1 0 -1
918 1 3.824076469631576 4.84561164394427 12.289100313102807 0 0 1
209 2 3.279874562161352 1.085739548938617 9.889169667024392 0 0 0
1398 1 3.5207633018811353 5.197489081369322 9.840951948232048 0 0 0
1129 1 1.1375081746189246 5.083486107338449 14.113392957536716 0 0 0
1649 2 4.0538332567294955 3.7283316783698885 10.935765416579008 0 1 1
1 1 2.6239662173838827 0.6825284918083812 11.470126242709648 -1 0 0
195 2 4.180852027404165 2.176631370339163 13.544884231766497 0 0 0
1393 1 1.5506423800058913 4.7786219317537535 11.767324695882046 0 0 0
46 1 4.13700713163084 3.414728875748044 14.946852125903654 0 0 -1
1525 1 1.6885775359004709 2.836550691566149 13.461293681605873 1 0 0
1263 2 5.378872653307717 4.732963807654926 15.678306942550106 1 1 0
1291 2 2.9369142036794607 2.361434475096915 11.956558850539137 0 0 0
1252 2 23.84317585985358 3.3770711162256886 12.98448996308549 0 0 0
993 2 1.747590465086122 1.1729498240623988 13.094838622487329 0 0 0
1369 1 2.5061852024352715 12.622343991964758 16.42825574431859 0 0 0
917 1 2.8842356401849396 6.285604104710036 15.047436217089821 1 0 1
994 2 4.916854804589534 6.44724576825447 12.213676592832382 0 0 0
968 1 1.4567172449390307 0.7358227073961238 15.839125846774987 0 0 0
1378 1 1.3380308963441767 6.811510919387606 16.341221959051104 0 0 0
1181 1 5.413704136108872 1.060074831068095 14.188471868612243 1 0 -1
1626 2 5.72073419122735 0.3167802778808341 15.930871335480253 0 0 0
358 2 2.037447547985826 3.4319818321236757 10.62079611537807 0 1 0
1462 2 2.0534867546025106 5.401659452433191 8.999434760450605 0 0 1
1371 1 4.654361306932877 2.2204140748964467 11.797114404987866 0 1 1
581 2 16.853743892944905 12.474743969317215 13.105620766472615 0 0 -1
204 2 22.99078182290144 8.68830929677584 8.666914482096795 0 1 0
977 2 1.8786162172414163 6.961019354337711 10.939841523198421 0 1 -1
1630 2 1.2361594107726588 7.262911358668761 8.74730991500693 1 0 1
1281 2 4.159616945579395 6.576596393721136 14.007567955174338 1 -1 0
202 2 22.398743650455003 10.379557641001796 10.271571000018884 -2 0 0
1623 2 4.450637302735018 2.3297983785388947 16.18450691542423 1 0 0
1230 2 3.0802665053849227 4.642438684668731 15.73595296309228 1 0 0
1424 2 1.7070381385219084 3.2134631691659252 16.100328518032427 0 0 0
640 2 7.282992921906213 4.049966035557995 14.141088485134757 0 0 -1
50 1 7.832513340654541 1.1746135909118425 8.693485451123856 0 0 0
1570 1 7.08487826062106 0.89532878295966 11.55140593612579 0 1 0
1156 1 8.296405112314396 1.8684088432527988 13.534856058563744 1 0 0
591 2 8.043793919834808 2.473976526670251 9.982083689552548 0 1 0
246 1 9.42818871101533 1.7087624646443695 10.82809624385595 0 1 0
1602 1 6.2098570409126665 3.280862095039883 12.743741130473389 1 1 1
342 2 8.675706674779265 3.7050780755662207 15.584571713387437 0 0 0
1145 1 6.308583256769563 4.087181296589051 9.8782663546603 0 -1 0
799 2 7.411859814390955 3.550262328085979 11.496427349156773 1 0 -1
942 1 10.136482458488778 4.172317575570245 14.811233467537688 0 0 0
38 1 7.138317806747869 5.383367554033361 11.888289650896581 0 0 -1
775 2 7.765332037571097 5.437711467394459 10.123549446629642 0 0 0
1451 2 5.148617583742841 4.662830507352356 13.698346157536685 0 1 0
1241 2 6.943005926167309 1.5565271914980212 14.47388109432897 1 0 0
734 1 9.43375972507555 4.422127586553555 10.634364252067895 0 1 0
333 2 9.008840456103743 3.9930370077947974 13.188809424679608 0 1 0
1589 1 10.078552499432222 0.6178028566877549 14.89850671665735 1 1 0
861 2 10.484352689512942 2.304406740549509 14.453386175968854 0 1 0
288 1 7.944581323799685 5.662307423070742 14.277748743091148 0 0 0
1382 1 23.090402881116233 12.019309143014981 14.65212111536013 -1 1 0
1593 1 7.61584917333677 1.467354398479354 16.03627518366293 1 1 0
137 2 9.261214775578589 1.7722850741309077 15.89545465735734 0 0 0
831 2 8.792793074695782 5.435529379650818 11.827044523231127 1 0 0
981 2 24.952549727504035 0.8951426089856117 10.626180186545312 -1 0 0
826 2 6.491277914419832 1.3826402474697648 9.835584802315173 1 0 1
779 2 10.29822996353646 3.832786682309827 9.397154787728926 1 0 0
714 1 7.02292819426006 4.054089372851966 15.781669000504312 1 1 0
134 2 10.360492630899858 5.710660187248812 8.83940734204451 0 0 0
457 1 23.827796963665087 11.975422217158203 10.587410853982322 -1 1 0
1441 2 14.267820478960697 0.9484348277208446 9.071312741635927 0 0 0
639 2 10.808325844971993 4.988623745376588 13.498548165755412 0 1 -1
1234 2 9.68984099483085 1.886551297399424 12.584675268081222 0 0 0
1320 1 12.913398941518963 4.671601304279224 16.6853713259504 0 0 0
1659 2 10.973111864408754 6.416677413938735 12.110252311731617 1 0 0
682 1 12.487808621899944 2.007956878700538 11.785297446589034 -1 0 0
1339 1 12.01654767859199 4.601536795753881 9.673697839297974 -1 1 0
91 1 10.453775052010883 3.3427334816771213 12.324536840228374 0 0 -1
214 2 12.266322137595179 1.8208418489268348 13.955167953895861 -1 1 -1
582 2 13.13080131894116 2.5526491198380374 9.518293338186886 0 1 1
1469 2 11.97872801500622 4.728694178019482 11.570678016545248 0 0 0
96 1 14.773920134327915 1.0569502015113628 14.54484448242632 0 0 -1
726 1 13.346258803745025 4.598284741584462 13.795596541846601 1 1 0
1656 2 11.462011040842077 6.058951217896323 10.244643287992277 0 0 0
1205 2 11.331076968853662 2.548419581187226 10.451433052761677 0 0 0
1556 1 12.587291847799657 2.878532384656019 15.172156075030532 0 1 0
1130 1 13.743436778938557 6.128353578437334 11.025543334524828 1 0 0
1611 1 19.41467473719156 12.392945092874838 10.599449173260485 0 0 0
334 2 12.567828996634407 5.887123739646866 8.647674333985256 1 -1 0
739 1 13.796407508723833 3.7227143393488666 11.462093360825161 0 0 -1
821 2 14.14342730564691 3.8201331248195443 15.234046316786452 0 0 -1
1402 1 14.260042430375346 3.773498597572114 8.697378308881065 -1 1 0
65 1 17.684727487591587 12.277587239543283 14.890306136069805 -1 0 0
898 1 14.777897815219285 6.309922277711887 16.20564563778815 0 0 0
1272 2 14.813036471339695 6.912010852092421 13.275349728885105 0 -1 1
608 2 14.903178096149276 3.1580723877169588 10.127012937870088 0 0 0
1507 2 14.786372850674358 1.9008154254491756 16.353001440072802 0 0 0
33 1 10.359836997382418 1.0271637009504808 8.716315104760366 0 0 0
798 2 4.33152004924945 8.762082659908788 8.661388579713128 1 1 0
145 2 11.849385032619194 5.598069133297317 15.052765656637145 0 0 -1
789 2 18.502595608056545 0.340681329162011 15.591516476853293 1 1 0
1235 2 18.64632390515886 10.051671431273084 16.03058199778023 1 -1 0
998 2 11.57875808697628 0.6661534604745916 12.351708931062639 0 1 0
270 1 14.93119544160474 1.3621287752656672 10.63479982277253 0 0 0
1689 2 15.582560781998144 4.481438786683041 11.33633452630699 0 0 0
800 2 14.715275376220674 5.1387156072345 9.628837902100935 0 1 -1
300 1 15.354921902434834 5.3592671057630294 12.95909664185485 0 0 -1
1242 2 15.142067184779906 2.6069009603925215 11.990345588553923 1 0 0
309 1 17.55601206868402 6.400814879905722 12.40800715415728 0 0 0
1628 2 17.562110004503374 0.7769825438749427 10.038809327210886 1 1 0
345 2 19.400149704345367 5.145398717760511 9.345279981230838 0 0 0
1299 1 17.03797118851608 2.9079664202288984 11.71566205598422 0 1 0
302 1 17.598652207264493 4.359385428227007 10.004358951676686 0 0 0
1080 2 15.773704818368827 0.9026940667142543 13.011323492477326 0 0 0
1376 1 18.330919117301875 4.3760414686854014 13.273589396641118 0 1 0
1151 1 16.265328785851512 3.143464325289233 14.58472188123542 0 0 0
809 2 19.371890354726858 4.29162659589317 11.769043319734113 -1 1 0
725 1 18.434580083668955 2.076686847299393 15.15103590844479 0 1 0
1545 1 17.601012106645925 1.433054751661056 13.250138230327767 0 1 0
529 1 17.5619019448282 2.468256049367765 8.935911821508501 -1 1 0
170 2 19.968839942062893 0.8586381784815192 13.71227178665981 0 0 1
1354 1 17.160118600131916 5.383930990782692 14.600367077844538 -1 0 0
1642 2 16.371835281116454 6.030719118318827 10.263801397897234 0 0 0
1014 2 20.02648280327697 3.665713739652308 16.386423169178272 0 1 0
904 1 4.736774304929419 12.36643065099822 10.737087321650476 0 0 0
1716 2 13.347053290580146 0.8176175668962299 11.00165777726135 1 1 0
553 2 18.69697329073456 4.3595067252664474 15.011966263028317 0 0 -1
1365 1 13.052217869940607 12.366784728617029 8.693074987772473 -1 0 1
1097 1 14.352879946507256 6.540508022535453 8.850077246527821 0 0 0
200 2 0.6470919787777354 12.39983679321946 16.36391583051146 0 0 0
829 2 21.68185646382838 0.955428084456145 14.630283665457545 0 0 0
280 1 19.661647625919905 2.9450408149946514 12.977907461567 0 0 -1
1190 2 20.064603045595696 1.8054437207934757 15.396598540924096 0 0 0
891 1 23.56217460592633 1.2219633758707276 11.57961064574715 -1 0 0
1423 2 24.17041785056781 4.835950445212428 14.557371627680045 0 1 0
823 2 19.481034100392378 1.4359761799428699 9.257750179890776 0 0 0
632 2 24.690089304353123 1.956536528465794 16.472133841513717 -1 1 -1
853 2 21.521275837399713 5.156079438799662 14.816035786912018 0 1 0
279 1 20.984483231709916 1.265593950367419 11.36978126168457 0 0 0
1448 2 23.724883645934966 1.503814213694858 9.235437875021361 -1 0 0
899 1 23.857920021521927 4.662548015047881 9.42555158069799 -1 0 0
472 1 20.1702287812343 5.405342620898669 13.908100647185002 -1 1 0
1098 1 22.488139939547523 4.216820083375873 13.791770650783233 -1 0 0
197 2 0.946435934621899 6.1778794731826085 12.783206438391545 0 0 0