LAMMPS (24 Mar 2022)
OMP_NUM_THREADS environment is not set. Defaulting to 1 thread. (src/comm.cpp:98)
  using 1 OpenMP thread(s) per MPI task

# System init

units      metal
dimension  3
boundary   p p p
atom_style atomic
timestep   0.00025


# read data
read_data NiO_supercell_iter_last_lmp.data
Reading data file ...
  orthogonal box = (0 0 0) to (12.649858 12.649858 12.649858)
  1 by 2 by 3 MPI processor grid
  reading atoms ...
  216 atoms
  read_data CPU = 0.001 seconds
replicate 2 2 2
Replicating atoms ...
  orthogonal box = (0 0 0) to (25.299717 25.299717 25.299717)
  1 by 2 by 3 MPI processor grid
  1728 atoms
  replicate CPU = 0.001 seconds

# pair potential

pair_style hybrid/overlay eam/alloy edip/multi
pair_coeff * * eam/alloy Mishin-Ni-Al-2009.eam.alloy Ni NULL
pair_coeff * * edip/multi NiAlO.edip Ni O

mass 2 15.999

thermo 1000
thermo_style custom step temp pe etotal press vol


# reporting

dump   1 all atom 1000 generic.lammpstrj
dump   2 all custom 1000 unwrapped.lammpstrj id type xu yu zu

# Single point
min_style cg
minimize 1e-8 1e-8 10000 100000

CITE-CITE-CITE-CITE-CITE-CITE-CITE-CITE-CITE-CITE-CITE-CITE-CITE

Your simulation uses code contributions which should be cited:

- @article{cjiang2012
 author    = {Jian, Chao and Morgan, Dane, and Szlufarska, Izabella},
 title     = {Carbon tri-interstitial defect: A model for DII center},
 journal   = {Physical Review B},
 volume    = {86},
 pages     = {144118},
 year      = {2012},
}

@article{lpizzagalli2010,
 author    = {G. Lucas, M. Bertolus, and L. Pizzagalli},
 journal   = {J. Phys. : Condens. Matter 22},
 volume    = {22},
 pages     = {035802},
 year      = {2010},
}

CITE-CITE-CITE-CITE-CITE-CITE-CITE-CITE-CITE-CITE-CITE-CITE-CITE

WARNING: Using 'neigh_modify every 1 delay 0 check yes' setting during minimization (src/min.cpp:187)
Neighbor list info ...
  update every 1 steps, delay 0 steps, check yes
  max neighbors/atom: 2000, page size: 100000
  master list distance cutoff = 8.28721
  ghost atom cutoff = 8.28721
  binsize = 4.143605, bins = 7 7 7
  3 neighbor lists, perpetual/occasional/extra = 3 0 0
  (1) pair eam/alloy, perpetual, skip from (3)
      attributes: half, newton on
      pair build: skip
      stencil: none
      bin: none
  (2) pair edip/multi, perpetual
      attributes: full, newton on
      pair build: full/bin/atomonly
      stencil: full/bin/3d
      bin: standard
  (3) neighbor class addition, perpetual, half/full from (2)
      attributes: half, newton on
      pair build: halffull/newton
      stencil: none
      bin: none
Per MPI rank memory allocation (min/avg/max) = 8.11 | 8.11 | 8.11 Mbytes
   Step          Temp          PotEng         TotEng         Press          Volume    
         0   0             -8921.847      -8921.847       22025.076      16193.733    
         1   0             -8921.847      -8921.847       22025.076      16193.733    
Loop time of 0.00616116 on 6 procs for 1 steps with 1728 atoms

99.9% CPU use with 6 MPI tasks x 1 OpenMP threads

Minimization stats:
  Stopping criterion = energy tolerance
  Energy initial, next-to-last, final = 
     -8921.84696268056  -8921.84696268056  -8921.84696565465
  Force two-norm initial, final = 0.00039135212 0.015068634
  Force max component initial, final = 8.7814039e-06 0.00031151521
  Final line search alpha, max atom move = 1 0.00031151521
  Iterations, force evaluations = 1 1

MPI task timing breakdown:
Section |  min time  |  avg time  |  max time  |%varavg| %total
---------------------------------------------------------------
Pair    | 0.0051273  | 0.0051605  | 0.0052067  |   0.0 | 83.76
Neigh   | 0          | 0          | 0          |   0.0 |  0.00
Comm    | 0.00012864 | 0.000178   | 0.00021681 |   0.0 |  2.89
Output  | 0          | 0          | 0          |   0.0 |  0.00
Modify  | 0          | 0          | 0          |   0.0 |  0.00
Other   |            | 0.0008227  |            |       | 13.35

Nlocal:            288 ave         288 max         288 min
Histogram: 6 0 0 0 0 0 0 0 0 0
Nghost:           2429 ave        2429 max        2429 min
Histogram: 6 0 0 0 0 0 0 0 0 0
Neighs:              0 ave           0 max           0 min
Histogram: 6 0 0 0 0 0 0 0 0 0
FullNghs:        36288 ave       36288 max       36288 min
Histogram: 6 0 0 0 0 0 0 0 0 0

Total # of neighbors = 217728
Ave neighs/atom = 126
Neighbor list builds = 0
Dangerous builds = 0

# Thermalisation

variable v equal vol

velocity all create 500 1 mom yes rot no
fix 1 all npt temp 500 4500 $(100*dt) iso 0.0 0.0 $(1000*dt)
fix 1 all npt temp 500 4500 0.025000000000000001388 iso 0.0 0.0 $(1000*dt)
fix 1 all npt temp 500 4500 0.025000000000000001388 iso 0.0 0.0 0.25
fix     2     all ave/time 1 1 1 c_thermo_temp file temp.dat
fix     3     all ave/time 1 1 1 v_v file vol.dat


run  2000000
Per MPI rank memory allocation (min/avg/max) = 6.985 | 6.985 | 6.985 Mbytes
   Step          Temp          PotEng         TotEng         Press          Volume    
         1   500           -8921.847      -8810.2308      29387.132      16193.733    
      1000   469.44166     -11767.685     -11662.89       4876.5521      14786.478    
      2000   515.81906     -11830.22      -11715.073      7637.3538      14506.877    
      3000   498.57335     -11858.387     -11747.09      -4678.3562      14394.325    
      4000   514.86623     -11870.477     -11755.543      11285.15       14329.552    
      5000   496.5281      -11890.228     -11779.387      537.10693      14256.615    
      6000   506.96364     -11892.473     -11779.303      8831.7382      14236.957    
      7000   521.99015     -11905.966     -11789.441      7309.0588      14218.559    
      8000   525.02223     -11906.828     -11789.626     -5922.5932      14204.383    
      9000   495.25823     -11918.112     -11807.555      12813.782      14158.221    
     10000   534.7775      -11918.473     -11799.094     -33339.025      14144.95     
     11000   515.31893     -11922.196     -11807.161     -1688.5414      14127.429    
     12000   531.59478     -11922.339     -11803.67      -5282.063       14137.07     
     13000   509.53179     -11929.767     -11816.023     -7462.0882      14136.759    
     14000   538.82243     -11924.89      -11804.607     -3507.2766      14124.7      
     15000   522.11781     -11932.196     -11815.642     -7035.6652      14122.233    
     16000   535.84906     -11930.239     -11810.62      -13832.915      14109.162    
     17000   548.35768     -11939.465     -11817.054     -18604.097      14072.059    
     18000   564.44468     -11934.717     -11808.715      5086.6134      14072.951    
     19000   523.52829     -11939.442     -11822.573      20738.363      14066.832    
     20000   552.26266     -11934.788     -11811.505     -5634.3722      14071.256    
     21000   527.01605     -11939.103     -11821.456     -13993.721      14074.046    
     22000   540.17498     -11942.789     -11822.204     -3558.577       14071.039    
     23000   540.36958     -11940.527     -11819.899     -8523.3521      14061.794    
     24000   553.61997     -11947.244     -11823.658      25578.352      14027.757    
     25000   537.32597     -11951.482     -11831.533      4521.8875      14006.029    
     26000   547.57356     -11952.429     -11830.193     -42825.188      14012.733    
     27000   553.16751     -11954.008     -11830.523     -858.6549       14007.458    
     28000   558.49425     -11953.676     -11829.002      10306.17       13994.313    
     29000   559.07881     -11950.295     -11825.491      7333.9981      13985.983    
     30000   553.14563     -11959.815     -11836.335      2108.9944      13976.184    
     31000   562.20832     -11953.04      -11827.537     -3777.834       14005.306    
     32000   549.28487     -11958.57      -11835.952      6521.2749      13985.337    
     33000   566.95416     -11957.378     -11830.815      5768.4653      13989.561    
     34000   566.84183     -11953.772     -11827.234      13392.971      13980.402    
     35000   543.81876     -11961.016     -11839.618     -19109.979      13980.924    
     36000   562.99906     -11958.888     -11833.209      3292.7153      13965.35     
     37000   574.52971     -11967.064     -11838.811      1157.9078      13964.774    
     38000   561.90534     -11961.337     -11835.901     -11057.8        13978.052    
     39000   561.30606     -11962.371     -11837.069      6304.5083      13945.482    
     40000   583.6232      -11966.851     -11836.567     -25567.846      13967.914    
     41000   564.41023     -11962.221     -11836.226      3629.0965      13941.869    
     42000   590.32334     -11961.498     -11829.719      24907.781      13925.231    
     43000   585.53372     -11969.436     -11838.726     -41204.764      13938.396    
     44000   601.18494     -11968.349     -11834.145      15005.485      13918.457    
     45000   585.89798     -11964.119     -11833.328      14387.29       13931.426    
     46000   593.76375     -11966.798     -11834.25       12602.106      13926.309    
     47000   589.64517     -11972.021     -11840.393      31848.658      13914.104    
     48000   594.87724     -11970.066     -11837.271      5414.9806      13946.34     
     49000   615.01928     -11964.076     -11826.784      6370.2193      13909.275    
     50000   599.18095     -11966.017     -11832.261     -2070.2938      13912.365    
     51000   629.87714     -11969.042     -11828.433     -40336.721      13921.25     
     52000   596.9515      -11975.747     -11842.488      16533.871      13898.982    
     53000   606.3606      -11972.551     -11837.192     -13995.447      13910.352    
     54000   604.16038     -11969.634     -11834.766      4730.3577      13883.726    
     55000   631.33778     -11977.094     -11836.159     -7328.1992      13880.004    
     56000   607.2595      -11973.43      -11837.871     -13111.478      13893.739    
     57000   607.49642     -11978.595     -11842.982      27774.069      13881.88     
     58000   612.94703     -11971.863     -11835.034      10290.484      13867.527    
     59000   630.4783      -11980.577     -11839.834     -9804.8605      13863.462    
     60000   625.2397      -11984.032     -11844.458      32714.41       13852.613    
     61000   629.80092     -11976.431     -11835.839      21056.234      13848.13     
     62000   612.27701     -11982.088     -11845.408     -10889.212      13848.222    
     63000   632.69156     -11976.624     -11835.387     -22756.745      13862.125    
     64000   617.27634     -11981.878     -11844.082     -26197.929      13867.954    
     65000   643.57987     -11976.33      -11832.662     -16801.281      13853.482    
     66000   624.04826     -11982.897     -11843.589     -19426.016      13853.506    
     67000   634.35852     -11982.715     -11841.105     -2408.1329      13831.153    
     68000   623.81301     -11978.709     -11839.453      11100.333      13859.282    
     69000   626.96586     -11975.332     -11835.373      16987.22       13851.912    
     70000   630.57944     -11981.29      -11840.524      4647.0321      13838.541    
     71000   653.34031     -11979.259     -11833.413      4723.1331      13848.333    
     72000   635.40144     -11975.093     -11833.251     -20.340136      13855.276    
     73000   648.11315     -11976.501     -11831.821      7065.5285      13840.119    
     74000   630.10028     -11982.539     -11841.88      -32032.784      13867.535    
     75000   637.12412     -11978.193     -11835.966     -12375.835      13863.371    
     76000   625.1044      -11980.176     -11840.632      10627.289      13827.081    
     77000   634.61297     -11974.292     -11832.626     -27084.966      13851.192    
     78000   653.6332      -11989.131     -11843.219     -6788.2239      13846.15     
     79000   655.4323      -11979.242     -11832.928     -10674.974      13845.534    
     80000   676.04813     -11980.53      -11829.614      6881.5109      13864.651    
     81000   666.66012     -11978.148     -11829.328      570.35895      13844.268    
     82000   661.35512     -11980.043     -11832.407     -2573.7799      13858.5      
     83000   662.43594     -11986.787     -11838.91      -5196.7124      13834.066    
     84000   689.40718     -11979.253     -11825.355     -8353.4479      13852.084    
     85000   681.14733     -11983         -11830.946     -2447.7707      13823.864    
     86000   678.05374     -11981.346     -11829.982     -16832.327      13816.613    
     87000   651.7341      -11981.671     -11836.183     -8407.0483      13824.541    
     88000   676.65439     -11985.2       -11834.148     -3530.8993      13802.336    
     89000   681.68784     -11981.863     -11829.689      28694.398      13813.034    
     90000   673.63357     -11981.285     -11830.909     -29355.944      13828.431    
     91000   656.99327     -11978.749     -11832.087     -1374.5825      13820.092    
     92000   656.58765     -11977.879     -11831.307     -6967.58        13825.953    
     93000   721.40809     -11980.539     -11819.497      22351.844      13833.596    
     94000   699.82259     -11983.915     -11827.692     -14849.997      13820.685    
     95000   682.97008     -11983.788     -11831.327     -12430.434      13814.71     
     96000   688.71965     -11979.424     -11825.68      -2432.0986      13838.104    
     97000   703.24608     -11985.317     -11828.33       9387.737       13811.618    
     98000   673.33024     -11983.342     -11833.033      18233.633      13814.291    
     99000   703.34474     -11976.284     -11819.275      2321.6934      13817.53     
    100000   695.71794     -11982.062     -11826.755     -41746.152      13837.834    
    101000   726.21645     -11982.494     -11820.379     -2503.4557      13812.723    
    102000   692.82571     -11982.386     -11827.725      10771.966      13808.84     
    103000   716.32847     -11979.073     -11819.165      24253.129      13785.583    
    104000   703.32598     -11979.145     -11822.14      -3691.5977      13817.809    
    105000   726.81276     -11972.862     -11810.614      14861.274      13816.296    
    106000   719.5279      -11980.747     -11820.125     -33162.328      13821.068    
    107000   696.30312     -11981.112     -11825.675      2333.6397      13807.553    
    108000   731.74102     -11978.174     -11814.825     -29200.316      13824.732    
    109000   696.04416     -11980.391     -11825.011      28840.458      13811.95     
    110000   733.00461     -11982.906     -11819.275      6872.6992      13795.611    
    111000   732.7089      -11978.792     -11815.228      633.69128      13799.386    
    112000   732.39279     -11980.956     -11817.462     -22048.427      13803.632    
    113000   704.51398     -11982.417     -11825.147      21901.162      13763.343    
    114000   745.88194     -11981.11      -11814.605     -35583.243      13809.292    
    115000   733.52251     -11979.43      -11815.684     -2713.3302      13797.154    
    116000   726.00778     -11982.309     -11820.241      8838.6936      13832.937    
    117000   724.65152     -11982.356     -11820.591     -3320.0696      13822.104    
    118000   717.90155     -11985.759     -11825.5       -13269.801      13781.363    
    119000   745.82065     -11973.153     -11806.662      4075.9989      13793.796    
    120000   738.76687     -11984.389     -11819.472      49207.45       13800.399    
    121000   756.42684     -11976.478     -11807.619      6190.7135      13786.558    
    122000   736.17894     -11971.877     -11807.538     -25927.22       13818.253    
    123000   725.19195     -11976.448     -11814.561     -8149.0898      13797.562    
    124000   724.48423     -11973.669     -11811.94      -16654.766      13811.18     
    125000   764.48784     -11977.902     -11807.244      17214.04       13803.658    
    126000   749.81171     -11982.208     -11814.826      22061.719      13784.176    
    127000   745.5538      -11975.486     -11809.054      15626.311      13779.791    
    128000   741.80889     -11972.516     -11806.921      27129.204      13809.059    
    129000   758.7144      -11979.449     -11810.079     -21039.593      13783.782    
    130000   745.43258     -11976.499     -11810.094      58334.543      13780.443    
    131000   773.17776     -11980.03      -11807.432      17585.772      13777.455    
    132000   747.59185     -11976.207     -11809.32      -26016.347      13786.107    
    133000   778.42383     -11972.084     -11798.314     -18837.929      13800.935    
    134000   775.18941     -11983.654     -11810.607     -17999.163      13771.144    
    135000   751.53948     -11974.03      -11806.262     -30022.561      13810.064    
    136000   776.09002     -11981.826     -11808.578      16219.577      13787.471    
    137000   786.77895     -11978.804     -11803.169     -20479.304      13790.335    
    138000   775.94625     -11976.854     -11803.637     -24516.064      13786.5      
    139000   769.04817     -11967.375     -11795.699      20687.546      13776.046    
    140000   790.2464      -11985.853     -11809.444      19058.027      13746.739    
    141000   765.83316     -11972.957     -11801.999     -18257.322      13787.109    
    142000   799.55926     -11967.211     -11788.723     -1104.265       13779.422    
    143000   781.96164     -11977.621     -11803.061      55206.161      13763.897    
    144000   768.25393     -11976.957     -11805.458      29208.148      13752.815    
    145000   765.65579     -11975.841     -11804.922      492.3302       13766.316    
    146000   796.03571     -11972.982     -11795.281      12513.5        13744.589    
    147000   803.40082     -11976.831     -11797.486      30760.314      13749.478    
    148000   772.12153     -11980.674     -11808.311      4484.5892      13739.781    
    149000   804.47669     -11981.497     -11801.912     -17437.173      13739.817    
    150000   774.28809     -11977.911     -11805.065      30571.501      13749.322    
    151000   786.88079     -11975.834     -11800.177     -22412.73       13753.951    
    152000   812.5321      -11981.004     -11799.621     -5011.9538      13750.714    
    153000   806.06748     -11982.424     -11802.484     -16263.233      13771.743    
    154000   820.36752     -11980.684     -11797.552      25045.162      13745.784    
    155000   801.33938     -11981.014     -11802.129     -19595.549      13729.902    
    156000   800.4935      -11977.8       -11799.104      884.85292      13756.413    
    157000   832.8087      -11977.784     -11791.874      13272.026      13738.57     
    158000   809.90292     -11978.1       -11797.303     -8004.7002      13749.048    
    159000   819.82541     -11980.615     -11797.603     -11907.529      13755.786    
    160000   848.10899     -11981.056     -11791.731     -17254.988      13760.112    
    161000   820.48442     -11976.08      -11792.922      41856.387      13741.469    
    162000   825.98108     -11981.729     -11797.344      43954.1        13724.107    
    163000   815.93074     -11981.396     -11799.254      4015.7306      13738.593    
    164000   839.53141     -11977.91      -11790.499      3755.5565      13751.746    
    165000   800.67318     -11984.163     -11805.427      7365.1976      13746.38     
    166000   829.59135     -11984.299     -11799.107      12559.368      13746.599    
    167000   827.0639      -11982.533     -11797.906      3916.1256      13723.473    
    168000   838.96428     -11984.6       -11797.317     -30834.694      13715.804    
    169000   831.88646     -11977.453     -11791.749     -3032.5765      13721.302    
    170000   834.12572     -11987.539     -11801.336      49338.75       13704.163    
    171000   834.80064     -11983.13      -11796.775     -9629.7766      13715.173    
    172000   828.76606     -11980.707     -11795.7       -3479.8605      13717.412    
    173000   827.89346     -11985.106     -11800.294     -26655.301      13706.327    
    174000   849.50734     -11988.078     -11798.441      14814.919      13707.103    
    175000   882.46622     -11981.534     -11784.539      19083.036      13736.812    
    176000   832.8131      -11984.613     -11798.702     -18084.389      13729.585    
    177000   846.46826     -11983.135     -11794.176     -27435          13696.335    
    178000   859.73537     -11978.065     -11786.144     -19552.52       13720.154    
    179000   863.30326     -11981.733     -11789.016      3142.0625      13692.227    
    180000   853.36949     -11983.039     -11792.539     -33946.564      13713.569    
    181000   865.61677     -11977.466     -11784.232      41304.164      13711.316    
    182000   878.4075      -11984.342     -11788.253      40374.152      13702.393    
    183000   855.90435     -11984.506     -11793.44      -48529.563      13717.362    
    184000   875.20324     -11982.966     -11787.592      20977.535      13712.681    
    185000   834.55459     -11984.002     -11797.702      13699.255      13696.006    
    186000   894.47908     -11984.438     -11784.762      29320.505      13701.015    
    187000   866.57046     -11982.489     -11789.042      4831.9169      13729.473    
    188000   877.27179     -11975.618     -11779.783      4758.8696      13718.909    
    189000   857.53722     -11984.741     -11793.311      29782.052      13696.72     
    190000   898.68512     -11986.205     -11785.589     -10892.32       13672.84     
    191000   890.78559     -11982.446     -11783.593     -8864.2789      13694.436    
    192000   867.4454      -11991.843     -11798.201      15687.961      13678.897    
    193000   865.09361     -11983.602     -11790.486     -14524.916      13679.484    
    194000   895.57621     -11992.491     -11792.57      -34337.354      13697.165    
    195000   883.21072     -11990.031     -11792.87       15247.349      13686.117    
    196000   892.40917     -11985.988     -11786.773      3817.5303      13719.86     
    197000   879.41918     -11989.137     -11792.822      10247.514      13671.15     
    198000   884.44005     -11976.91      -11779.474      17384.078      13674.019    
    199000   875.30384     -11985.359     -11789.963     -5119.9544      13687.556    
    200000   889.34895     -11984.212     -11785.681      29215.646      13679.898    
    201000   899.38464     -11988.043     -11787.271      14493.852      13673.661    
    202000   901.97733     -11979.581     -11778.231      23884.944      13680.997    
    203000   888.17934     -11987.703     -11789.433      3886.2227      13675.192    
    204000   915.04919     -11984.894     -11780.625     -12736.243      13646.762    
    205000   924.75165     -11990.827     -11784.393      41850.566      13654.084    
    206000   944.02797     -11983.238     -11772.501      12645.936      13686.522    
    207000   911.34698     -11984.898     -11781.456      18097.595      13646.645    
    208000   872.07008     -11984.625     -11789.951     -8003.5388      13693.719    
    209000   929.4674      -11985.814     -11778.327     -92.939857      13682.467    
    210000   927.53933     -11983.077     -11776.02       15020.895      13673.004    
    211000   927.14909     -11982.089     -11775.119      15300.341      13659.463    
    212000   908.92353     -11989.396     -11786.495     -14707.864      13661.204    
    213000   932.13861     -11981.575     -11773.492      26645.847      13635.507    
    214000   920.79545     -11985.748     -11780.196      32660.147      13637.486    
    215000   919.77015     -11975.882     -11770.56      -39044.463      13667.945    
    216000   923.14248     -11983.512     -11777.437      14152.773      13666.156    
    217000   924.96464     -11986.27      -11779.788     -14641.95       13672.267    
    218000   918.5431      -11982.745     -11777.696      22255.877      13648.627    
    219000   906.99619     -11983.536     -11781.065      12654.218      13642.181    
    220000   932.00075     -11975.119     -11767.066      8374.5586      13647.702    
    221000   923.44477     -11983.048     -11776.905      23649.698      13663.469    
    222000   944.24753     -11979.425     -11768.639     -20047.933      13674.876    
    223000   955.536       -11995.434     -11782.127     -13525.249      13638.72     
    224000   964.34064     -11980.345     -11765.073      7780.4352      13660.283    
    225000   948.61443     -11981.872     -11770.11      -3977.5763      13661.131    
    226000   928.74354     -11979.307     -11771.982     -35690.011      13673.908    
    227000   957.20645     -11971.606     -11757.926      2090.4495      13675.418    
    228000   974.96322     -11981.061     -11763.418     -43155.67       13683.394    
    229000   947.24896     -11976.465     -11765.009      19325.553      13678.11     
    230000   961.51616     -11986.136     -11771.495     -46248.345      13676.195    
    231000   979.0132      -11985.517     -11766.97       9569.3547      13658.19     
    232000   984.34099     -11977.192     -11757.455      15721.303      13703.179    
    233000   957.08791     -11977.906     -11764.253     -38639.717      13669.226    
    234000   960.99087     -11976.542     -11762.018      26416.059      13649.7      
    235000   971.31195     -11976.047     -11759.219      65519.082      13645.126    
    236000   958.1044      -11978.966     -11765.086      4112.2642      13679.227    
    237000   1017.8278     -11976.362     -11749.15      -41338.63       13681.803    
    238000   968.3337      -11980.898     -11764.735     -46714.699      13667.358    
    239000   1005.9308     -11974.625     -11750.069     -10871.095      13656.786    
    240000   988.04195     -11981.878     -11761.315     -18885.022      13636.011    
    241000   978.62463     -11966.312     -11747.852      39169.036      13642.946    
    242000   975.74216     -11973.101     -11755.284     -50772.616      13682.113    
    243000   998.93232     -11985.447     -11762.453      21227.217      13635.089    
    244000   967.03261     -11967.527     -11751.654     -25552.255      13683.645    
    245000   933.64562     -11970.148     -11761.729     -1805.291       13641.127    
    246000   979.9658      -11966.297     -11747.537     -8182.1556      13671.894    
    247000   966.36589     -11969.418     -11753.694      49963.595      13642.197    
    248000   983.31447     -11970.457     -11750.949     -16672.695      13657.589    
    249000   1004.3048     -11965.856     -11741.663      18494.426      13669.952    
    250000   988.6538      -11965.792     -11745.093      43113.672      13645.065    
    251000   1011.1481     -11972.854     -11747.133     -12859.163      13678.941    
    252000   1003.3072     -11962.671     -11738.701      30136.873      13655.358    
    253000   1046.4435     -11962.508     -11728.908     -3361.0171      13688.198    
    254000   1012.763      -11972.565     -11746.483     -24530.727      13657.062    
    255000   1021.8419     -11964.21      -11736.102      18731.715      13664.973    
    256000   994.14905     -11967.933     -11746.007     -10410.654      13662.098    
    257000   1026.6321     -11977.806     -11748.628      10672.063      13676.075    
    258000   1021.7169     -11964.55      -11736.47       50331.876      13662.426    
    259000   1022.896      -11964.16      -11735.817     -16190.956      13686.643    
    260000   1044.7917     -11953.333     -11720.102      54580.161      13669.815    
    261000   992.75919     -11964.009     -11742.393      26452.521      13673.282    
    262000   1011.8994     -11958.638     -11732.749      25250.468      13698.156    
    263000   1027.8065     -11959.627     -11730.187      2961.7408      13650.72     
    264000   1041.3061     -11969.187     -11736.734     -8214.016       13671.721    
    265000   1089.4215     -11950.524     -11707.33       20569.821      13676.141    
    266000   1028.37       -11961.288     -11731.723      33726.085      13640.953    
    267000   1059.7499     -11961.975     -11725.405      24695.695      13659.748    
    268000   1048.8227     -11949.971     -11715.84       53760.614      13651.447    
    269000   1012.8979     -11961.926     -11735.815      22196.748      13646.972    
    270000   1047.5165     -11952.617     -11718.778      11077.143      13668.097    
    271000   1064.4201     -11963.27      -11725.657     -6695.1638      13644.599    
    272000   1028.6984     -11959.089     -11729.45      -31391.959      13666.56     
    273000   1063.172      -11949.903     -11712.569      1183.7519      13683.963    
    274000   1066.5408     -11967.153     -11729.067     -34534.71       13674.033    
    275000   1055.7229     -11958.635     -11722.963     -7128.0253      13670.805    
    276000   1059.9538     -11953.894     -11717.278      12576.389      13668.603    
    277000   1084.305      -11947.359     -11705.307      4287.2192      13676.251    
    278000   1031.2574     -11958.013     -11727.803     -28746.243      13669.675    
    279000   1064.756      -11949.951     -11712.263      6865.0338      13695.825    
    280000   1054.7377     -11953.627     -11718.176      11394.053      13682.862    
    281000   1090.2141     -11965.62      -11722.249     -3147.3892      13672.384    
    282000   1099.3146     -11955.538     -11710.136      12282.076      13651.726    
    283000   1074.9401     -11955.67      -11715.709      5701.6013      13679.346    
    284000   1060.5003     -11954.518     -11717.78      -23112.724      13689.322    
    285000   1098.6481     -11949.219     -11703.965     -5000.1399      13675.978    
    286000   1082.4022     -11947.648     -11706.02       8723.3745      13665.975    
    287000   1034.0692     -11953.879     -11723.042     -53013.96       13677.778    
    288000   1063.8117     -11946.395     -11708.918     -2939.086       13660.969    
    289000   1085.5626     -11960.527     -11718.194      17127.82       13665.289    
    290000   1079.0824     -11953.46      -11712.574      1831.7808      13674.78     
    291000   1073.9632     -11965.445     -11725.702     -14105.948      13670.048    
    292000   1097.6484     -11961.181     -11716.151     -2230.9107      13650.47     
    293000   1112.3491     -11957.57      -11709.257      10937.781      13630.865    
    294000   1074.79       -11942.931     -11703.003     -34096.085      13675.396    
    295000   1094.0723     -11961.016     -11716.784      11632.16       13655.911    
    296000   1098.6108     -11957.892     -11712.646      17069.953      13645.915    
    297000   1077.6041     -11943.422     -11702.866      13936.073      13676.553    
    298000   1051.3222     -11950.718     -11716.029      47960.222      13622.598    
    299000   1124.1747     -11948.371     -11697.419      29675.525      13663.546    
    300000   1114.9403     -11961.76      -11712.87       33358.69       13600.155    
    301000   1109.2226     -11943.433     -11695.819     -13506.447      13669.058    
    302000   1068.3908     -11943.07      -11704.57      -25368.872      13688.691    
    303000   1130.6412     -11946.606     -11694.21       1495.5234      13684.804    
    304000   1100.3969     -11947.879     -11702.235      27881.382      13640.864    
    305000   1120.6313     -11952.477     -11702.316     -43827.855      13687.208    
    306000   1116.4494     -11949.672     -11700.445      49813.741      13644.71     
    307000   1127.6456     -11954.092     -11702.365     -26741.67       13636.893    
    308000   1092.1088     -11956.394     -11712.6        23247.923      13631.914    
    309000   1058.61       -11941.193     -11704.877      12567.548      13680.035    
    310000   1135.6692     -11951.395     -11697.877     -41646.588      13673.048    
    311000   1126.6009     -11935.053     -11683.56       13778.513      13677.414    
    312000   1109.6223     -11946.216     -11698.513     -3720.847       13668.459    
    313000   1125.0134     -11941.454     -11690.315      18139.496      13658.472    
    314000   1091.0515     -11943.324     -11699.766      8525.6799      13652.668    
    315000   1123.3984     -11948.239     -11697.46       16052.395      13635.655    
    316000   1155.9738     -11934.668     -11676.617      17424.346      13640.308    
    317000   1115.6631     -11940.726     -11691.674     -37274.124      13637.996    
    318000   1127.3816     -11935.085     -11683.417      45634.94       13638.694    
    319000   1092.3644     -11940.537     -11696.686     -2776.3309      13650.457    
    320000   1117.3321     -11925.694     -11676.27       17442.097      13687.431    
    321000   1105.2934     -11940.627     -11693.89      -33283.28       13653.612    
    322000   1134.7884     -11946.926     -11693.605      11990.475      13632.574    
    323000   1154.6315     -11937.365     -11679.614      9429.5012      13641.018    
    324000   1111.8983     -11936.247     -11688.035     -29182.819      13664.674    
    325000   1139.8856     -11945.927     -11691.468      48143.034      13615.806    
    326000   1155.8144     -11953.697     -11695.681      18817.476      13621.766    
    327000   1145.3124     -11956.322     -11700.651     -69767.364      13661.787    
    328000   1151.603      -11955.504     -11698.429      43445.687      13618.708    
    329000   1182.1634     -11939.522     -11675.625     -13909.777      13639.125    
    330000   1192.861      -11932.05      -11665.765     -52068.359      13661.352    
    331000   1160.4598     -11938.8       -11679.748     -1400.3686      13612.146    
    332000   1159.9732     -11950.501     -11691.558      22060.274      13622.757    
    333000   1149.2903     -11948.919     -11692.36       5686.9287      13619.835    
    334000   1126.3451     -11926.849     -11675.413     -74589.438      13638.948    
    335000   1189.9849     -11942.746     -11677.103     -51413.144      13643.344    
    336000   1212.2674     -11940.412     -11669.794      15797.829      13620.263    
    337000   1171.8301     -11937.671     -11676.081     -9184.9498      13608.198    
    338000   1188.2563     -11935.644     -11670.387     -8546.7789      13629.585    
    339000   1142.7065     -11931.584     -11676.495     -21427.101      13624.573    
    340000   1178.1181     -11942.42      -11679.426     -22875.459      13599.606    
    341000   1174.1391     -11939.105     -11676.999     -28980.992      13634.622    
    342000   1174.4691     -11940.718     -11678.538     -31508.138      13607.501    
    343000   1185.5407     -11943.323     -11678.672      51496.35       13600.63     
    344000   1161.64       -11928.109     -11668.793     -42742.445      13610.486    
    345000   1223.7863     -11930.594     -11657.406     -9203.8505      13648.207    
    346000   1187.6446     -11934.961     -11669.841      12383.692      13625.915    
    347000   1162.0437     -11946.969     -11687.563      13920.449      13569.284    
    348000   1206.4588     -11949.519     -11680.198     -20503.053      13591.498    
    349000   1164.3495     -11930.032     -11670.111     -32100.789      13593.914    
    350000   1214.7247     -11934.049     -11662.883     -3074.1252      13602.544    
    351000   1224.147      -11936.993     -11663.724      20860.389      13601.369    
    352000   1199.4585     -11943.26      -11675.502     -25163.064      13574.666    
    353000   1218.1208     -11951.818     -11679.894     -9346.2665      13613.895    
    354000   1212.3392     -11929.831     -11659.198     -6865.8716      13568.455    
    355000   1207.2028     -11946.875     -11677.389     -44681.358      13585.182    
    356000   1260.6925     -11942.098     -11660.67       868.74206      13628.551    
    357000   1196.1393     -11942.606     -11675.589     -54556.051      13598.833    
    358000   1267.7172     -11934.894     -11651.898      36108.749      13591.537    
    359000   1227.272      -11947.767     -11673.8       -5212.1964      13613.775    
    360000   1250.3349     -11944.259     -11665.144      15073.074      13575.606    
    361000   1250.2484     -11951.969     -11672.873      28477.609      13572.927    
    362000   1226.1128     -11936.509     -11662.801     -27801.165      13572.623    
    363000   1242.8883     -11938.173     -11660.72       15729.134      13589.992    
    364000   1256.2585     -11926.288     -11645.85       18204.49       13586.89     
    365000   1232.9693     -11941.473     -11666.234     -50379.241      13569.58     
    366000   1261.342      -11940.468     -11658.895      25299.176      13581.616    
    367000   1227.5391     -11926.824     -11652.798      27924.62       13579.341    
    368000   1256.7416     -11931.386     -11650.841     -14479.836      13571.646    
    369000   1217.5949     -11929.844     -11658.038     -1700.6391      13595.995    
    370000   1262.5323     -11941.592     -11659.754      12205.141      13610.03     
    371000   1219.5014     -11941.638     -11669.406     -472.35145      13600.112    
    372000   1213.0861     -11937.914     -11667.114      26426.651      13580.766    
    373000   1272.3091     -11944.164     -11660.144     -55262.778      13581.425    
    374000   1258.2761     -11935.725     -11654.837     -9194.7957      13597.722    
    375000   1303.6007     -11951.281     -11660.275     -7068.7261      13565.452    
    376000   1299.2811     -11942.283     -11652.242     -64801.314      13590.134    
    377000   1265.4739     -11955.524     -11673.029     -3377.007       13561.496    
    378000   1261.9734     -11945.798     -11664.085     -4249.9112      13555.182    
    379000   1264.4058     -11943.512     -11661.255      339.28562      13585.615    
    380000   1260.56       -11945.595     -11664.198     -21197.421      13587.465    
    381000   1230.9382     -11949.841     -11675.056      13604.335      13574.993    
    382000   1258.524      -11933.593     -11652.65       4796.7296      13578.841    
    383000   1301.3427     -11928.097     -11637.595     -12042.538      13598.591    
    384000   1275.7132     -11939.462     -11654.682      2636.7824      13566.081    
    385000   1259.8551     -11933.579     -11652.338     -5139.5112      13608.451    
    386000   1245.8798     -11950.062     -11671.941      19586.191      13562.079    
    387000   1282.5913     -11936.973     -11650.657     -281.80182      13551.897    
    388000   1293.0753     -11935.844     -11647.188      12720.693      13582.064    
    389000   1277.731      -11922.269     -11637.038      4160.1644      13582.313    
    390000   1265.6432     -11939.163     -11656.631      19781.602      13535.117    
    391000   1279.3315     -11932.681     -11647.093      6199.4202      13573.665    
    392000   1276.7588     -11952.055     -11667.041      5783.0021      13555.013    
    393000   1274.3994     -11928.964     -11644.477      867.19709      13599.498    
    394000   1268.3066     -11931.143     -11648.016     -41010.869      13570.737    
    395000   1262.108      -11933.428     -11651.685      10407.668      13567.672    
    396000   1286.1719     -11931.904     -11644.789      531.32868      13548.536    
    397000   1320.2716     -11923.401     -11628.674      35618.411      13579.03     
    398000   1286.5049     -11931.187     -11643.998      30578.246      13536.677    
    399000   1265.2611     -11912.323     -11629.876     -21638.987      13625.053    
    400000   1325.385      -11938.04      -11642.171      44478.617      13536.116    
    401000   1298.5662     -11928.486     -11638.604     -2595.905       13561.381    
    402000   1298.9215     -11930.265     -11640.304      33262.457      13546.242    
    403000   1324.5784     -11927.052     -11631.363     -32547.39       13575.203    
    404000   1348.4269     -11925.619     -11624.607      16332.075      13534.248    
    405000   1310.4836     -11933.994     -11641.452     -6680.873       13560.397    
    406000   1282.1896     -11919.623     -11633.397      23797.919      13539.309    
    407000   1258.3043     -11937.532     -11656.638     -36891.069      13526.83     
    408000   1354.8989     -11931.324     -11628.867     -7726.4414      13526.33     
    409000   1298.5376     -11910.055     -11620.179      10274.128      13556.368    
    410000   1297.343      -11932.621     -11643.012      36100.224      13525.594    
    411000   1302.0982     -11932.201     -11641.53       9899.4855      13559.402    
    412000   1347.1091     -11922.234     -11621.516     -499.81937      13521.51     
    413000   1304.3553     -11940.156     -11648.982     -12686.278      13511.186    
    414000   1302.1402     -11916.473     -11625.793      14697.907      13551.592    
    415000   1327.3707     -11927.748     -11631.436      27100.526      13527.054    
    416000   1306.989      -11938.877     -11647.115      9076.0971      13519.075    
    417000   1336.5996     -11920.312     -11621.94      -8345.7148      13538.291    
    418000   1350.0235     -11917.944     -11616.575     -13210.095      13541.867    
    419000   1328.5912     -11915.984     -11619.4       -1515.701       13519.36     
    420000   1380.8202     -11923.829     -11615.586      35212.347      13524.726    
    421000   1321.7987     -11922.985     -11627.917      28077.865      13502.23     
    422000   1364.4643     -11913.505     -11608.913      15304.417      13534.989    
    423000   1314.5597     -11922.154     -11628.702     -19155.298      13536.079    
    424000   1367.9592     -11909.396     -11604.023     -23528.754      13521.692    
    425000   1324.7852     -11913.412     -11617.677      14756.081      13555.858    
    426000   1356.7981     -11908.555     -11605.674     -14055.747      13553.496    
    427000   1322.4079     -11917.71      -11622.506     -11314.636      13541.69     
    428000   1372.508      -11912.217     -11605.829      62582.493      13539.556    
    429000   1352.9636     -11934.151     -11632.126     -17057.337      13501.841    
    430000   1366.3895     -11924.22      -11619.198     -20728.871      13542.081    
    431000   1367.6707     -11930.586     -11625.278      49848.883      13483.044    
    432000   1339.7853     -11921.806     -11622.722     -31681.179      13497.008    
    433000   1374.2982     -11926.303     -11619.515     -26115.048      13530.332    
    434000   1352.432      -11924.159     -11622.253     -78260.689      13514.518    
    435000   1360.8575     -11934.313     -11630.526     -17382.985      13498.486    
    436000   1344.9031     -11927.344     -11627.118      22292.657      13484.756    
    437000   1349.5308     -11909.589     -11608.33      -32800.787      13522.771    
    438000   1365.4711     -11922.595     -11617.777     -38562.174      13525.704    
    439000   1415.6786     -11911.009     -11594.984      15176.226      13518.711    
    440000   1452.5472     -11926.056     -11601.8       -19179.589      13492.445    
    441000   1338.4464     -11912.602     -11613.818      43826.445      13507.886    
    442000   1372.1913     -11911.937     -11605.619      19025.85       13503.891    
    443000   1327.5751     -11904.545     -11608.188      21213.282      13535.363    
    444000   1358.6807     -11903.551     -11600.25       37573.203      13526.036    
    445000   1396.3119     -11889.114     -11577.413     -19886.275      13528.888    
    446000   1350.4821     -11910.557     -11609.086      254.61217      13506.304    
    447000   1467.2458     -11899.481     -11571.945      39930.008      13503.555    
    448000   1395.9314     -11912.398     -11600.781      39066.231      13540.356    
    449000   1389.1481     -11910.379     -11600.276     -19991.95       13529.959    
    450000   1387.621      -11913.613     -11603.851      3965.7892      13491.128    
    451000   1399.0462     -11928.369     -11616.057     -4190.8076      13505.366    
    452000   1406.5489     -11913.866     -11599.879     -10444.526      13505.685    
    453000   1425.2425     -11920.715     -11602.555      11361.002      13492.123    
    454000   1419.3241     -11911.301     -11594.462      14734.989      13502.546    
    455000   1434.2098     -11909.833     -11589.671      6530.0661      13505.232    
    456000   1450.8432     -11918.814     -11594.939     -1370.7192      13481.366    
    457000   1386.6885     -11915.753     -11606.2        16893.328      13479.906    
    458000   1385.2536     -11923.483     -11614.249     -2527.5445      13492.779    
    459000   1410.6453     -11910.135     -11595.233      15551.1        13508.115    
    460000   1432.6405     -11925.963     -11606.152     -27069.779      13468.375    
    461000   1422.3207     -11921.707     -11604.199     -26766.165      13481.963    
    462000   1426.4625     -11911.517     -11593.084     -3180.8138      13507.318    
    463000   1458.4446     -11906.999     -11581.427      427.08434      13511.821    
    464000   1465.3649     -11915.729     -11588.612      11409.673      13481.594    
    465000   1405.5304     -11916.572     -11602.812      4464.1726      13491.6      
    466000   1443.5688     -11910.385     -11588.134      52404.162      13460.583    
    467000   1438.0766     -11919.022     -11597.997     -35690.251      13503.399    
    468000   1406.8526     -11929.771     -11615.716     -32118.445      13487.522    
    469000   1446.0635     -11904.266     -11581.458     -31926.264      13532.619    
    470000   1441.0633     -11932.407     -11610.715      1155.8184      13510.728    
    471000   1451.2489     -11903.273     -11579.307     -18978.535      13517.524    
    472000   1470.4292     -11919.668     -11591.42      -28778.06       13552.974    
    473000   1427.7613     -11903.541     -11584.818      3417.4982      13551.33     
    474000   1442.2204     -11915.746     -11593.796      54004.171      13482.316    
    475000   1448.7277     -11920.959     -11597.557      3918.0278      13518.837    
    476000   1408.181      -11919.517     -11605.165     -19082.479      13486.48     
    477000   1440.6934     -11905.629     -11584.019      21749.146      13525.71     
    478000   1481.4411     -11902.436     -11571.73      -13112.544      13522.213    
    479000   1433.0732     -11895.657     -11575.749     -26831.45       13545.955    
    480000   1428.6582     -11912.944     -11594.021     -483.46741      13508.626    
    481000   1485.8907     -11897.006     -11565.307     -24176.974      13534.084    
    482000   1480.9301     -11904.378     -11573.787     -2996.3739      13496.82     
    483000   1466.8976     -11903.899     -11576.44       17718.454      13470.163    
    484000   1489.5578     -11901.982     -11569.464      17375.827      13506.142    
    485000   1526.3307     -11896.913     -11556.187     -29617.536      13544.553    
    486000   1480.1987     -11895.853     -11565.425     -10242.248      13519.947    
    487000   1443.2523     -11885.584     -11563.404     -23552.975      13536.454    
    488000   1436.2043     -11919.376     -11598.769      5442.1591      13501.468    
    489000   1494.9643     -11897.829     -11564.104     -24644.26       13524.316    
    490000   1514.8805     -11897.524     -11559.354     -22092.241      13515.073    
    491000   1516.1217     -11889.59      -11551.143     -49098.393      13521.303    
    492000   1483.3931     -11903.266     -11572.125     -3642.8739      13529.805    
    493000   1503.0114     -11892.529     -11557.008      50698.995      13479.255    
    494000   1492.1505     -11878.821     -11545.725      44115.284      13531.138    
    495000   1462.9394     -11892.774     -11566.199      35412.261      13492.252    
    496000   1495.3596     -11869.199     -11535.387     -5137.8461      13563.985    
    497000   1487.9877     -11872.393     -11540.226     -32387.22       13535.336    
    498000   1493.1555     -11886.813     -11553.493      48826.078      13529.292    
    499000   1540.9485     -11867.07      -11523.08       11310.218      13547.051    
    500000   1506.1158     -11883.543     -11547.329     -7974.3246      13600.032    
    501000   1515.5289     -11872.849     -11534.534     -7501.3111      13542.937    
    502000   1531.158      -11869.721     -11527.917     -7779.4881      13564.604    
    503000   1523.5876     -11875.988     -11535.874      20067.146      13576.985    
    504000   1467.441      -11882.4       -11554.82      -42695.303      13540.639    
    505000   1550.1069     -11882.557     -11536.523     -37786.923      13572.342    
    506000   1507.9961     -11891.644     -11555.011      11226.844      13562.223    
    507000   1493.7162     -11877.806     -11544.36       36785.232      13526.5      
    508000   1509.3065     -11863.639     -11526.713      10009.902      13586.338    
    509000   1505.2466     -11882.589     -11546.569      15712.204      13535.495    
    510000   1526.6281     -11878.056     -11537.264      58721.042      13530.385    
    511000   1479.3228     -11883.378     -11553.145      32515.652      13538.415    
    512000   1558.523      -11864.408     -11516.495     -29363.545      13572.816    
    513000   1535.0819     -11883.16      -11540.481      31978.192      13523.38     
    514000   1475.267      -11852.247     -11522.92       4619.9153      13554.555    
    515000   1548.3007     -11865.859     -11520.229     -10828.521      13570.451    
    516000   1546.5564     -11873.65      -11528.409     -15103.087      13552        
    517000   1519.1926     -11871.724     -11532.591     -5037.2152      13625.962    
    518000   1566.394      -11849.591     -11499.922      25467.724      13566.835    
    519000   1527.2619     -11870.995     -11530.061      24391.923      13555.764    
    520000   1548.5355     -11873.848     -11528.165     -27660.671      13575.119    
    521000   1512.6807     -11842.613     -11504.933     -9498.4363      13582.143    
    522000   1533.2049     -11875.034     -11532.773      25458.367      13562.089    
    523000   1576.8923     -11874.828     -11522.814     -11025.839      13550.606    
    524000   1568.3346     -11881.238     -11531.135     -19914.092      13585.177    
    525000   1591.3905     -11870.341     -11515.092      14219.45       13591.124    
    526000   1551.7766     -11875.484     -11529.077     -28945.659      13570.998    
    527000   1552.7765     -11880.876     -11534.246     -6487.1613      13542.518    
    528000   1548.0591     -11861.542     -11515.965     -20860.209      13583.843    
    529000   1578.084      -11869.411     -11517.131      10760.036      13554.822    
    530000   1505.6086     -11864.081     -11527.98      -4671.9586      13587.517    
    531000   1538.5449     -11873.135     -11529.682      35713.895      13544.782    
    532000   1594.9073     -11861.411     -11505.376      27209.759      13548.796    
    533000   1561.7861     -11872.549     -11523.908      9832.0435      13566.804    
    534000   1570.8471     -11875.635     -11524.971     -17623.306      13592.375    
    535000   1592.9476     -11871.507     -11515.91       56849.857      13540.219    
    536000   1522.5307     -11874.896     -11535.018      2914.5641      13570.638    
    537000   1560.9453     -11869.979     -11521.525      63366.351      13560.798    
    538000   1600.6988     -11875.803     -11518.476     -21033.772      13573.929    
    539000   1525.4692     -11870.263     -11529.729     -13202.119      13564.945    
    540000   1585.5142     -11880.93      -11526.992      14560.987      13535.089    
    541000   1573.4582     -11854.102     -11502.855     -9141.0078      13631.111    
    542000   1627.4422     -11862.453     -11499.155     -27456.417      13607.143    
    543000   1569.3331     -11865.781     -11515.455      38223.618      13559.814    
    544000   1561.1754     -11857.119     -11508.614      10641.054      13568.428    
    545000   1622.4703     -11872.332     -11510.144      995.99728      13562.462    
    546000   1640.9766     -11840.451     -11474.132     -2289.5917      13554.881    
    547000   1514.2095     -11843.572     -11505.552      23853.139      13535.078    
    548000   1618.7379     -11860.332     -11498.977      6051.8737      13541.331    
    549000   1574.2106     -11858.588     -11507.174     -147.13191      13568.684    
    550000   1626.2515     -11868.182     -11505.15       6381.1633      13564.761    
    551000   1566.7686     -11864.479     -11514.726     -30825.121      13556.08     
    552000   1593.2556     -11851.074     -11495.408     -3980.9666      13578.309    
    553000   1628.3259     -11860.909     -11497.414     -127.31053      13558.471    
    554000   1612.0282     -11845.874     -11486.018     -46851.918      13578.703    
    555000   1612.7977     -11849.055     -11489.026      8280.6835      13573.907    
    556000   1658.1897     -11845.652     -11475.491      20498.873      13600.706    
    557000   1619.0237     -11844.582     -11483.164     -20399.1        13608.633    
    558000   1598.7492     -11862.345     -11505.452      39954.972      13578.905    
    559000   1625.0648     -11855.307     -11492.54       18028.392      13567.961    
    560000   1605.8877     -11847.327     -11488.841     -22324.841      13570.764    
    561000   1614.3231     -11867.165     -11506.796      26377.275      13567.931    
    562000   1606.3537     -11848.618     -11490.028      41007.588      13563.952    
    563000   1640.1001     -11858.885     -11492.761      2078.4422      13590.928    
    564000   1651.3217     -11843.35      -11474.722      5705.1155      13610.278    
    565000   1595.419      -11871.786     -11515.637     -14041.381      13545.302    
    566000   1630.7629     -11851.563     -11487.524      21244.93       13540.061    
    567000   1665.1205     -11837.738     -11466.029     -30919.729      13590.247    
    568000   1666.6175     -11837.834     -11465.791     -4809.1397      13598.065    
    569000   1677.3406     -11844.328     -11469.892     -19846.856      13598.484    
    570000   1571.5071     -11841.409     -11490.598     -45844.969      13550.514    
    571000   1631.9844     -11838.373     -11474.061     -15193.801      13556.983    
    572000   1637.1329     -11833.915     -11468.454     -24718.775      13573.837    
    573000   1639.9872     -11844.013     -11477.915     -14151.961      13572.662    
    574000   1689.9451     -11845.388     -11468.137      22526.708      13554.583    
    575000   1564.911      -11820.752     -11471.413      17771.143      13603.338    
    576000   1561.0122     -11847.457     -11498.989      6046.9512      13594.022    
    577000   1665.0149     -11825.824     -11454.139     -7635.9704      13595.329    
    578000   1596.8741     -11821.061     -11464.587     -26929.511      13615.59     
    579000   1686.8723     -11824.818     -11448.254      6440.0299      13582.988    
    580000   1690.0113     -11829.699     -11452.434     -22948.063      13642.592    
    581000   1679.7763     -11829.149     -11454.169      14421.916      13592.501    
    582000   1676.0419     -11830.182     -11456.035     -1575.9548      13575.789    
    583000   1637.1974     -11844.192     -11478.717     -10431.935      13554.281    
    584000   1663.3214     -11823.897     -11452.59       19722.646      13606.768    
    585000   1653.433      -11825.448     -11456.349     -1923.1878      13572.94     
    586000   1682.4096     -11827.739     -11452.171     -5523.3622      13604.097    
    587000   1724.8499     -11843.299     -11458.257      53328.885      13549.615    
    588000   1682.2189     -11824.377     -11448.852     -2624.3476      13595.841    
    589000   1665.1434     -11834.458     -11462.744      31935.483      13586.725    
    590000   1647.0943     -11827.162     -11459.477     -69005.234      13622.49     
    591000   1677.4388     -11820.113     -11445.654     -43529.615      13653.593    
    592000   1641.0724     -11850.781     -11484.44       63088.325      13570.8      
    593000   1701.0441     -11844.879     -11465.151      14429.757      13598.533    
    594000   1750.5359     -11814.193     -11423.417     -23900.236      13630.691    
    595000   1703.3374     -11836.552     -11456.312      7734.439       13592.171    
    596000   1653.7009     -11813.337     -11444.178     -48124.06       13655.217    
    597000   1732.3828     -11830.344     -11443.62       25681.757      13617.443    
    598000   1602.846      -11829.128     -11471.321      26330.007      13612.767    
    599000   1658.9075     -11813.631     -11443.309     -118.56274      13625.02     
    600000   1788.5487     -11827.386     -11428.124      27715.028      13630.153    
    601000   1740.7387     -11823.41      -11434.821     -36696.607      13651.076    
    602000   1749.0302     -11819.83      -11429.39      -30159.446      13605.993    
    603000   1665.0576     -11807.702     -11436.007      17232.22       13639.349    
    604000   1785.1175     -11809.728     -11411.233      4599.1309      13665.712    
    605000   1684.9585     -11823.248     -11447.111     -9363.9007      13600.253    
    606000   1719.673      -11825.339     -11441.452     -69242.857      13639.394    
    607000   1652.9598     -11831.663     -11462.669      39574.355      13607.588    
    608000   1713.9691     -11825.217     -11442.604      64607.795      13592.8      
    609000   1758.3504     -11819.961     -11427.441      22765.292      13652.696    
    610000   1733.5924     -11822.289     -11435.295      33183.38       13594.995    
    611000   1678.9248     -11809.614     -11434.823     -11491.731      13659.592    
    612000   1732.0576     -11821.413     -11434.761      40800.027      13574.965    
    613000   1688.1629     -11837.118     -11460.266     -7501.3555      13589.513    
    614000   1780.7728     -11820.337     -11422.811     -50546.087      13609.383    
    615000   1712.8321     -11806.837     -11424.478      25223.291      13621.328    
    616000   1741.9421     -11812.678     -11423.82       4532.1458      13596.145    
    617000   1748.1223     -11816.315     -11426.078      7261.2596      13574.386    
    618000   1773.2407     -11799.227     -11403.382      22559.232      13609.491    
    619000   1634.6398     -11804.306     -11439.402     -42939.386      13602.656    
    620000   1718.0607     -11799.659     -11416.132      15857.273      13617.5      
    621000   1669.2655     -11808.265     -11435.632     -38892.662      13644.37     
    622000   1782.9671     -11798.731     -11400.715     -7280.4177      13654.073    
    623000   1757.1437     -11804.187     -11411.935     -21790.979      13622.194    
    624000   1718.7689     -11814.405     -11430.721     -10609.67       13640.927    
    625000   1777.426      -11820.555     -11423.776      3528.3296      13616.616    
    626000   1789.8424     -11806.212     -11406.662      13300.27       13566.403    
    627000   1738.5219     -11802.462     -11414.367     -18589.143      13623.55     
    628000   1719.2299     -11770.146     -11386.358      28678.413      13637.191    
    629000   1780.2503     -11795.928     -11398.519     -14607.131      13673.879    
    630000   1765.3224     -11794.422     -11400.345      422.10944      13618.716    
    631000   1704.7106     -11802.593     -11422.046     -5420.7881      13626.521    
    632000   1828.83       -11793.558     -11385.304     -12197.124      13607.796    
    633000   1773.6948     -11799.459     -11403.513     -75793.486      13636.41     
    634000   1729.2057     -11798.937     -11412.923     -11915.211      13601.339    
    635000   1825.875      -11775.152     -11367.558      38526.327      13651.611    
    636000   1764.7917     -11784.362     -11390.404      17364.506      13679.564    
    637000   1795.2187     -11786.908     -11386.157     -32490.035      13628.51     
    638000   1789.0928     -11780.008     -11380.625     -18178.313      13627.946    
    639000   1799.1736     -11794.091     -11392.458     -45052.718      13619.889    
    640000   1695.2735     -11788.556     -11410.116      17700.158      13590.649    
    641000   1715.1306     -11791.056     -11408.183      14816.003      13618.537    
    642000   1808.2501     -11799.502     -11395.842      18351.902      13623.618    
    643000   1801.3272     -11792.887     -11390.772     -12862.491      13615.154    
    644000   1773.8431     -11809.775     -11413.796      14902.534      13609.751    
    645000   1791.0055     -11783.799     -11383.989     -21752.43       13636.022    
    646000   1804.7331     -11807.027     -11404.152     -38576.726      13613.925    
    647000   1806.5676     -11793.009     -11389.725      13652.687      13639.114    
    648000   1795.0263     -11777.265     -11376.557     -20053.2        13630.334    
    649000   1799.4481     -11775.038     -11373.343      7347.0173      13615.497    
    650000   1803.7507     -11775.236     -11372.58       2130.1658      13620.371    
    651000   1791.0932     -11789.284     -11389.455     -4710.2996      13638.828    
    652000   1768.4517     -11779.183     -11384.407     -33514.779      13638.763    
    653000   1820.2936     -11766.459     -11360.111     -39114.184      13635.553    
    654000   1822.3202     -11773.936     -11367.135      24156.094      13599.843    
    655000   1807.0869     -11796.656     -11393.256      57521.76       13606.708    
    656000   1793.1376     -11788.542     -11388.256     -31506.893      13614.305    
    657000   1832.5382     -11784.561     -11375.479      22756.051      13579.288    
    658000   1853.9829     -11775.749     -11361.88       11103.59       13631.259    
    659000   1796.5128     -11789.122     -11388.083     -26713.12       13606.82     
    660000   1792.1785     -11780.669     -11380.597      12126.504      13585.775    
    661000   1877.9812     -11773.377     -11354.151     -21080.069      13609.805    
    662000   1782.7792     -11785.214     -11387.24       3483.4501      13613.929    
    663000   1818.6497     -11779.172     -11373.191     -33031.887      13643.307    
    664000   1824.0128     -11772.679     -11365.5        26145.799      13568.936    
    665000   1876.1755     -11762.313     -11343.491     -14094.022      13588.982    
    666000   1825.3889     -11783.788     -11376.302     -53863.009      13600.95     
    667000   1853.6723     -11786.084     -11372.285     -22355.896      13609.107    
    668000   1805.9599     -11762.302     -11359.153     -30581.602      13610.702    
    669000   1750.1432     -11765.167     -11374.478      23880.083      13606.63     
    670000   1811.0916     -11743.178     -11338.884     -4738.663       13666.668    
    671000   1811.9774     -11769.159     -11364.667      4696.5488      13605.586    
    672000   1808.4231     -11772.274     -11368.575      46410.69       13607.599    
    673000   1811.2826     -11766         -11361.663      55588.156      13592.189    
    674000   1940.1144     -11743.382     -11310.286     -24501.543      13660.9      
    675000   1792.9625     -11761.014     -11360.767      23223.991      13609.131    
    676000   1921.4016     -11760.849     -11331.93       23370.189      13607.038    
    677000   1853.4898     -11775.694     -11361.935      53919.081      13597.215    
    678000   1864.3096     -11774.76      -11358.586     -3967.3768      13607.001    
    679000   1845.6357     -11745.711     -11333.705     -688.41217      13656.466    
    680000   1919.5907     -11746.202     -11317.687      66544.765      13632.858    
    681000   1933.2562     -11734.746     -11303.181      1761.5564      13693.591    
    682000   1893.6343     -11742.574     -11319.854      44082.702      13624.58     
    683000   1965.4801     -11740.585     -11301.826     -2420.6034      13675.514    
    684000   1893.8183     -11739.715     -11316.953     -4090.0651      13622.297    
    685000   1834.1126     -11736.66      -11327.227     -15622.089      13681.459    
    686000   1857.2361     -11723.143     -11308.548     -13284.537      13687.76     
    687000   1874.5606     -11744.716     -11326.254     -198.04276      13640.107    
    688000   1855.3548     -11735.033     -11320.858     -41493.131      13677.892    
    689000   1935.3994     -11713.622     -11281.579     -64174.285      13710.819    
    690000   1900.24       -11719.177     -11294.983     -18978.616      13679.815    
    691000   1857.0994     -11714.544     -11299.979      3986.9647      13709.263    
    692000   1959.515      -11737.179     -11299.752     -16325.426      13698.664    
    693000   1856.4137     -11740.826     -11326.414      8647.9421      13668.806    
    694000   1924.367      -11714.671     -11285.09      -17838.622      13707.609    
    695000   1867.2687     -11725.547     -11308.712     -7286.3781      13674.21     
    696000   1916.0295     -11719.089     -11291.369      11647.26       13696.372    
    697000   1935.332      -11716.648     -11284.619     -15807.795      13682.622    
    698000   1916.5789     -11732.335     -11304.493      50858.956      13655.123    
    699000   1888.7637     -11729.375     -11307.742      73702.627      13622.414    
    700000   1877.6124     -11707.27      -11288.127     -5924.7032      13674.023    
    701000   1909.1771     -11725.927     -11299.737      28989.736      13637.851    
    702000   1956.0144     -11717.758     -11281.112      14391.826      13653.005    
    703000   1859.7807     -11712.02      -11296.857      25412.703      13693.689    
    704000   1928.1279     -11708.378     -11277.958     -154.46755      13645.543    
    705000   1927.5282     -11719.333     -11289.046      50777.749      13660.578    
    706000   1883.1938     -11720.948     -11300.559      8308.7049      13652.978    
    707000   1904.5101     -11698.559     -11273.411     -7929.1417      13714.071    
    708000   1875.1622     -11704.447     -11285.85       23467.829      13697.372    
    709000   1898.0094     -11705.662     -11281.965      34027.661      13703.172    
    710000   1960.2113     -11717.451     -11279.869     -5568.7277      13686.141    
    711000   1987.0253     -11725.331     -11281.763     -7373.2036      13621.496    
    712000   1916.6828     -11709.837     -11281.972     -238.96243      13695.855    
    713000   1938.4081     -11690.087     -11257.372     -30847.058      13746.167    
    714000   1976.3695     -11684.638     -11243.448     -35930.205      13766.493    
    715000   1952.3694     -11691.371     -11255.54       22081.041      13802.153    
    716000   1943.6151     -11696.356     -11262.478      14804.954      13716.512    
    717000   2003.4591     -11686.565     -11239.328      24670.579      13766.255    
    718000   2011.3977     -11696.601     -11247.592      1824.6465      13742.49     
    719000   2028.5889     -11703.251     -11250.404     -2630.9957      13766.735    
    720000   1940.9784     -11684.09      -11250.801      3848.6502      13728.724    
    721000   1947.9612     -11683.003     -11248.155     -30873.251      13708.77     
    722000   1991.3588     -11647.691     -11203.155      27443.601      13768.3      
    723000   1924.4594     -11666.752     -11237.151     -14698.373      13730.216    
    724000   1956.82       -11652.936     -11216.111     -36389.559      13784.425    
    725000   1974.141      -11671.556     -11230.864      24347.236      13758.934    
    726000   1931.9695     -11704.895     -11273.618     -27651.534      13683.744    
    727000   1955.6297     -11663.701     -11227.142     -5968.6756      13771.839    
    728000   1904.0946     -11657.678     -11232.623     -22540.442      13786.72     
    729000   1984.3423     -11661.158     -11218.189     -19611.181      13788.004    
    730000   1996.2539     -11663.793     -11218.165     -20057.385      13756.806    
    731000   1980.3811     -11676.335     -11234.251      33847.054      13720.314    
    732000   1976.4866     -11657.445     -11216.23       6342.1574      13762.041    
    733000   1931.592      -11659.847     -11228.653      20975.412      13746.827    
    734000   2026.9742     -11665.952     -11213.466     -42525.966      13802.25     
    735000   1952.3305     -11660.277     -11224.454     -30359.464      13782.473    
    736000   2010.4808     -11645.583     -11196.779      44169.134      13777.03     
    737000   2044.5743     -11662.343     -11205.928      19091.915      13786.203    
    738000   1959.6222     -11681.692     -11244.241      5436.1878      13742.218    
    739000   2044.8085     -11662.277     -11205.81      -28903.888      13797.68     
    740000   1984.2923     -11658.82      -11215.862     -27876.486      13834.57     
    741000   1959.4046     -11684.499     -11247.097      16624.608      13759.759    
    742000   2020.5217     -11663.787     -11212.741     -45039.344      13852.258    
    743000   2043.9052     -11682.66      -11226.394     -41625.048      13801.215    
    744000   1949.8754     -11673.599     -11238.323      16467.995      13811.628    
    745000   1979.5341     -11645.616     -11203.72      -52342.929      13818.822    
    746000   2031.9704     -11650.227     -11196.625     -47767.407      13854.566    
    747000   1998.0343     -11658.405     -11212.379      3553.4478      13805.994    
    748000   1994.3305     -11648.965     -11203.766     -7788.9935      13759.519    
    749000   2044.0271     -11645.893     -11189.6        316.87501      13808.571    
    750000   1997.6058     -11645.376     -11199.446     -56478.864      13801.58     
    751000   2017.2432     -11643.521     -11193.207     -40903.314      13800.657    
    752000   1985.0389     -11612.895     -11169.77       25916.191      13833.632    
    753000   1971.2577     -11623.691     -11183.643     -22000.428      13843.221    
    754000   2012.7819     -11616.764     -11167.446     -11085.505      13808.334    
    755000   2050.1542     -11616.481     -11158.82       31928.148      13767.861    
    756000   2032.0788     -11615.209     -11161.584     -42425.021      13853.091    
    757000   2009.6493     -11624.717     -11176.099     -24118.924      13773.733    
    758000   1951.7884     -11613.499     -11177.796      19924.974      13780.788    
    759000   1978.3574     -11599.924     -11158.291      19584.695      13873.788    
    760000   2069.9629     -11584.285     -11122.202     -63415.477      13864.808    
    761000   1989.8499     -11602.47      -11158.271     -4272.7104      13868.63     
    762000   2110.1578     -11629.955     -11158.899      8679.2555      13790.788    
    763000   1977.883      -11600.869     -11159.342     -12051.235      13852.936    
    764000   2081.008      -11594.211     -11129.662     -34348.111      13844.878    
    765000   2072.0972     -11589.66      -11127.101     -5845.2675      13857.014    
    766000   2044.8542     -11620.492     -11164.015      12270.007      13805.352    
    767000   2087.0729     -11604.353     -11138.451      18055.968      13809.574    
    768000   2040.7502     -11611.694     -11156.133      3048.4621      13822.588    
    769000   1954.3397     -11634.137     -11197.865      31983.917      13741.728    
    770000   2060.0716     -11612.683     -11152.809      89.621759      13850.91     
    771000   2031.2561     -11606.119     -11152.678      20603.912      13853.576    
    772000   2056.8529     -11589.063     -11129.907      10015.497      13888.401    
    773000   2038.4061     -11615.625     -11160.587     -9942.4679      13873.008    
    774000   2071.6279     -11601.199     -11138.744     -19376.202      13858.211    
    775000   2041.0078     -11625.49      -11169.872     -9545.6541      13817.779    
    776000   2054.2513     -11608.088     -11149.512      9724.5828      13839.083    
    777000   2093.3824     -11586.847     -11119.537     -11529.776      13860.914    
    778000   2044.3183     -11621.53      -11165.172     -45492.782      13795.061    
    779000   2104.9624     -11591.612     -11121.717     -16144.759      13828.648    
    780000   2039.808      -11592.317     -11136.966     -23281.69       13876.928    
    781000   2085.6361     -11596.557     -11130.976      32184.284      13840.838    
    782000   2074.985      -11590.504     -11127.3       -41629.567      13840.668    
    783000   2104.9972     -11582.346     -11112.443     -25876.054      13868.453    
    784000   2090.8508     -11608.657     -11141.911      33953.082      13857.776    
    785000   2019.9779     -11611.216     -11160.292     -3707.2815      13813.114    
    786000   2010.4115     -11584.258     -11135.469     -25469.991      13905.394    
    787000   2071.292      -11583.44      -11121.061     -28848.927      13848.157    
    788000   2044.1926     -11592.383     -11136.053      18668.055      13843.847    
    789000   2032.3051     -11574.572     -11120.896     -2320.2713      13891.138    
    790000   2054.3182     -11592.96      -11134.37      -884.51891      13851.136    
    791000   2058.5594     -11595.591     -11136.055     -1459.4627      13860.668    
    792000   2130.3        -11580.143     -11104.591     -46382.936      13855.096    
    793000   2072.7803     -11591.858     -11129.147     -40209.739      13862.962    
    794000   2100.2306     -11595.501     -11126.662      34305.036      13838.88     
    795000   2085.64       -11578.477     -11112.895     -20158.773      13828.303    
    796000   2112.047      -11572.429     -11100.952      20446.032      13867.119    
    797000   2032.6578     -11601.12      -11147.365     -9562.2315      13804.491    
    798000   2084.6434     -11585.955     -11120.595      9221.0741      13885.869    
    799000   2080.4433     -11573.067     -11108.645     -28608.782      13938.21     
    800000   2134.246      -11568.152     -11091.72       36835.313      13875.252    
    801000   2079.8287     -11567.011     -11102.727     -19089.558      13866.042    
    802000   2142.5029     -11555.871     -11077.596      22140.965      14011.526    
    803000   2060.4843     -11560.241     -11100.274      10176.473      13924.061    
    804000   2055.0423     -11557.386     -11098.634      101073.98      13912.482    
    805000   2182.4217     -11548.501     -11061.314      26094.028      13945.642    
    806000   2063.6899     -11571.486     -11110.803      44853.618      13863.175    
    807000   2162.9469     -11555.09      -11072.25       19286.806      13873.971    
    808000   2166.1767     -11541.027     -11057.466      10601.686      13927.777    
    809000   2094.2281     -11540.66      -11073.161     -55616.007      13925.084    
    810000   2086.6887     -11554.314     -11088.498     -11254.713      13918.382    
    811000   2153.9118     -11551.212     -11070.389      47128.581      13842.051    
    812000   2155.3072     -11537.578     -11056.443      5420.9319      13883.879    
    813000   2123.6025     -11559.463     -11085.406      59534.911      13929.928    
    814000   2101.632      -11540.294     -11071.142     -35434.838      13941.17     
    815000   2175.4195     -11538.919     -11053.295      20870.669      13905.108    
    816000   2183.059      -11539.161     -11051.832      3925.4418      13896.841    
    817000   2125.4361     -11529.685     -11055.219      70516.743      13883.667    
    818000   2100.5248     -11536.884     -11067.979     -29564.24       13896.149    
    819000   2135.6378     -11535.586     -11058.843     -919.28206      13897.578    
    820000   2159.1415     -11551.299     -11069.309     -15181.374      13914.977    
    821000   2214.4213     -11528.75      -11034.419     -21504.602      13934.969    
    822000   2137.5595     -11542.175     -11065.003      8712.3925      13947.589    
    823000   2111.5387     -11531.318     -11059.954      22637.742      13913.022    
    824000   2119.7511     -11529.927     -11056.73       15464.223      13935.107    
    825000   2185.4262     -11512.994     -11025.137     -12090.372      13998.287    
    826000   2110.2391     -11508.343     -11037.269     -7381.8988      13984.507    
    827000   2191.3983     -11530.599     -11041.409     -18421.898      13948.299    
    828000   2109.3221     -11551.34      -11080.471     -14473.119      13886.485    
    829000   2194.7714     -11559.545     -11069.601     -23579.256      13936.343    
    830000   2170.4289     -11515.793     -11031.283      25299.283      13978.848    
    831000   2121.6911     -11517.231     -11043.601     -62068.285      13992.262    
    832000   2185.0733     -11511.032     -11023.253      23373.51       13965.903    
    833000   2194.6802     -11519.737     -11029.813      10565.685      13975.021    
    834000   2121.4993     -11546.058     -11072.471      11008.684      13967.043    
    835000   2117.933      -11516.331     -11043.54       28424.52       13990.701    
    836000   2143.1736     -11500.241     -11021.816     -58338.805      14000.003    
    837000   2134.2782     -11509.621     -11033.181     -41199.413      14050.805    
    838000   2179.5493     -11490.214     -11003.669     -44476.166      14030.997    
    839000   2203.9083     -11498.956     -11006.973     -50730.933      13974.608    
    840000   2189.0418     -11470.727     -10982.062     -1973.4734      14016.844    
    841000   2197.0623     -11456.365     -10965.91       15632.677      14045.622    
    842000   2220.6827     -11460.851     -10965.123     -51835.379      14059.817    
    843000   2122.9251     -11491.813     -11017.907      23247.968      13967.557    
    844000   2119.5342     -11483.547     -11010.398      76596.392      14004.763    
    845000   2221.2045     -11491.822     -10995.978     -17706.79       14034.467    
    846000   2200.0619     -11475.841     -10984.716     -4784.9743      13999.609    
    847000   2178.0422     -11505.493     -11019.284     -33829.46       14035.84     
    848000   2246.9693     -11505.147     -11003.551      31164.788      13982.845    
    849000   2111.9099     -11508.925     -11037.479      7097.8265      13955.296    
    850000   2223.8918     -11509.889     -11013.445      28138.096      13923.842    
    851000   2261.2641     -11491.201     -10986.414      43079.274      13974.609    
    852000   2217.8564     -11457.177     -10962.08      -9632.1731      14028.451    
    853000   2276.9183     -11484.61      -10976.328      8284.9738      14084.864    
    854000   2249.4615     -11489.596     -10987.444      27076.532      14052.915    
    855000   2168.9028     -11493.507     -11009.338     -63338.134      13992.475    
    856000   2241.4342     -11482.804     -10982.443     -27142.833      14032.788    
    857000   2206.5695     -11453.289     -10960.711     -4615.4306      14044.198    
    858000   2205.7333     -11467.988     -10975.597      22580.515      13991.991    
    859000   2146.7743     -11470.524     -10991.295      27836.974      13977.677    
    860000   2257.6019     -11469.161     -10965.192      49107.892      13995.722    
    861000   2287.8575     -11456.236     -10945.512      55370.825      14020.852    
[...]
    988000   2452.1103     -11326.123     -10778.733     -62331.183      14253.746    
    989000   2525.8175     -11310.148     -10746.304     -30113.753      14224.199    
    990000   2543.1547     -11309.746     -10742.032     -15628.302      14251.964    
    991000   2381.6817     -11295.439     -10763.771      23151.058      14266.265    
    992000   2550.5094     -11283.199     -10713.843      27756.983      14278.881    
    993000   2429.956      -11273.165     -10730.72      -72190.633      14384.266    
    994000   2511.6957     -11258.117     -10697.425     -24747.164      14307.522    
    995000   2376.3677     -11293.937     -10763.456     -47306.11       14302.319    
    996000   2502.1284     -11302.683     -10744.127      18309.524      14286.23     
    997000   2459.3926     -11285.726     -10736.71      -16328.047      14308.031    
    998000   2528.0976     -11298.935     -10734.582     -482.75378      14387.174    
    999000   2531.9135     -11294.306     -10729.101     -1610.9683      14353.769    
   1000000   2462.422      -11297.468     -10747.776      40916.808      14296.053    
   1001000   2549.7733     -11276.111     -10706.92      -25061.194      14300.917    
   1002000   2515.9818     -11265.225     -10703.576      4469.309       14313.251    
   1003000   2553.4217     -11305.373     -10735.367     -36088.19       14268.446    
   1004000   2595.7366     -11306.381     -10726.929      38703.752      14221.509    
   1005000   2512.9212     -11293.909     -10732.944      82290.037      14224.868    
   1006000   2417.8316     -11279.648     -10739.91       25479.652      14237.882    
   1007000   2457.2857     -11286.634     -10738.089     -23973.59       14240.23     
   1008000   2503.1657     -11293.734     -10734.947      63878.011      14257.211    
   1009000   2568.5156     -11272.971     -10699.596     -13178.165      14368.623    
   1010000   2506.4953     -11254.426     -10694.895      48400.686      14353.597    
   1011000   2537.3818     -11286.804     -10720.379      29874.59       14288.25     
   1012000   2479.1381     -11266.8       -10713.377      9693.8304      14364.022    
   1013000   2598.5324     -11231.621     -10651.545      14792.462      14367.822    
   1014000   2518.0881     -11246.431     -10684.313     -49566.952      14323.041    
   1015000   2535.3139     -11281.766     -10715.802      7195.2756      14316.712    
   1016000   2546.023      -11284.925     -10716.571      44637.65       14367.824    
   1017000   2536.8868     -11284.846     -10718.531     -13717.227      14321.759    
   1018000   2487.0589     -11250.706     -10695.514      41529.181      14333.206    
   1019000   2599.5094     -11254.663     -10674.368     -40707.657      14312.146    
   1020000   2554.4199     -11231.856     -10661.627     -11168.255      14323.488    
   1021000   2501.6035     -11252.446     -10694.008      23812.127      14282.827    
   1022000   2520.3666     -11256.132     -10693.505      1698.7397      14305.386    
   1023000   2505.4209     -11265.307     -10706.016     -38184.422      14297.949    
   1024000   2494.0697     -11265.955     -10709.199     -32364.307      14356.739    
   1025000   2614.2775     -11267.044     -10683.453      59100.64       14293.631    
   1026000   2526.8439     -11265.323     -10701.25      -72449.376      14315.788    
   1027000   2619.0347     -11271.111     -10686.458     -42825.538      14353.27     
   1028000   2508.1888     -11324.021     -10764.112      54441.656      14157.482    
   1029000   2529.4287     -11258.115     -10693.465     -32536.721      14333.717    
   1030000   2615.3117     -11261.215     -10677.393      36625.609      14358.596    
   1031000   2589.717      -11296.57      -10718.461      9836.7254      14281.716    
   1032000   2524.9542     -11264.279     -10700.628     -22602.933      14311.625    
   1033000   2619.9384     -11260.792     -10675.937      13241.223      14332.016    
   1034000   2625.8323     -11250.573     -10664.403     -27360.666      14354.525    
   1035000   2449.6532     -11218.18      -10671.339     -17760.784      14413.346    
   1036000   2550.4062     -11265.77      -10696.437     -6541.6698      14381.699    
   1037000   2652.2086     -11266.088     -10674.029     -2058.3069      14329.754    
   1038000   2573.0047     -11223.089     -10648.711     -209.24823      14359.15     
   1039000   2580.8064     -11232.467     -10656.348     -38952.243      14354.409    
   1040000   2587.6037     -11211.048     -10633.411     -9252.5819      14361.931    
   1041000   2547.8243     -11225.57      -10656.813     -52211.963      14407.138    
   1042000   2575.1071     -11223.799     -10648.952     -46230.932      14449.379    
   1043000   2640.067      -11182.811     -10593.463     -5980.0461      14492.712    
   1044000   2639.9688     -11244.993     -10655.667     -14928.722      14370.027    
   1045000   2519.746      -11211.404     -10648.915     -34185.935      14378.559    
   1046000   2608.2338     -11243.289     -10661.047     -2541.6188      14402.691    
   1047000   2651.0339     -11207.986     -10616.19       37143.878      14375.025    
   1048000   2607.8076     -11217.525     -10635.378     -10751.332      14359.062    
   1049000   2596.0368     -11206.947     -10627.427     -44961.606      14442.166    
   1050000   2599.0885     -11213.201     -10633.001     -6621.3218      14325.535    
   1051000   2658.2938     -11225.4       -10631.983     -37467.236      14409.919    
   1052000   2558.5192     -11229.334     -10658.19      -11516.304      14402.876    
   1053000   2513.1941     -11214.879     -10653.853      790.35563      14407.505    
   1054000   2564.0665     -11215.017     -10642.635      31446.144      14370.045    
   1055000   2661.7634     -11217.754     -10623.563     -17623.534      14408.941    
   1056000   2613.9011     -11190.797     -10607.289     -24806.057      14400.454    
   1057000   2616.6263     -11233.061     -10648.945     -16905.63       14414.06     
   1058000   2615.2891     -11212.545     -10628.728     -5735.5334      14421.348    
   1059000   2657.407      -11235.211     -10641.992     -60586.309      14412.326    
   1060000   2614.3941     -11205.434     -10621.817      7876.2184      14344.054    
   1061000   2636.9367     -11227.993     -10639.343     -20522.895      14416.396    
   1062000   2550.7335     -11193.792     -10624.386      13541.274      14471.639    
   1063000   2631.3003     -11192.199     -10604.808      11057.271      14417.773    
   1064000   2697.5716     -11221.848     -10619.663      5562.2491      14367.055    
   1065000   2558.7621     -11197.791     -10626.593     -26067.227      14396.882    
   1066000   2718.3138     -11202.535     -10595.72       35687.064      14349.148    
   1067000   2597.3848     -11208.336     -10628.515     -3298.3772      14418.174    
   1068000   2566.6983     -11181.356     -10608.387     -29259.309      14465.797    
   1069000   2675.9271     -11209.255     -10611.902      27604.423      14372.375    
   1070000   2557.8367     -11217.133     -10646.141      16898.415      14416.142    
   1071000   2707.2009     -11218.096     -10613.762      20180.373      14340.484    
   1072000   2669.1054     -11178.467     -10582.637     -41437.716      14454.199    
   1073000   2699.0894     -11203.813     -10601.289      18952.007      14426.054    
   1074000   2699.3773     -11196.906     -10594.318      32102.214      14361.983    
   1075000   2721.6233     -11176.613     -10569.059      37298.791      14500.343    
   1076000   2642.2063     -11187.996     -10598.17      -2904.5055      14419.829    
   1077000   2702.5957     -11141.967     -10538.66      -31899.959      14527.882    
   1078000   2649.709      -11176.462     -10584.962      9421.7085      14505.09     
   1079000   2556.2315     -11149.872     -10579.238     -33346.495      14472.946    
   1080000   2535.7587     -11175.703     -10609.64      -41699.023      14434.372    
   1081000   2662.2468     -11182.729     -10588.43       19877.611      14422.083    
   1082000   2717.2534     -11208.908     -10602.329      64093.441      14393.735    
   1083000   2606.614      -11185.847     -10603.967     -14847.262      14462.013    
   1084000   2665.5109     -11187.335     -10592.307      3617.1985      14450.049    
   1085000   2683.8551     -11157.242     -10558.119     -4964.0942      14399.38     
   1086000   2641.3855     -11186.106     -10596.463      18969.265      14394.058    
   1087000   2577.0838     -11181.785     -10606.497     -58367.275      14495.895    
   1088000   2692.8428     -11177.635     -10576.506      6797.8362      14459.831    
   1089000   2650.8325     -11219.334     -10627.582      5450.9802      14376.596    
   1090000   2682.3518     -11172.696     -10573.909     -29244.778      14443.181    
   1091000   2710.3738     -11183.623     -10578.58       13543.563      14436.961    
   1092000   2625.8009     -11175.633     -10589.47      -37666.236      14528.455    
   1093000   2651.3261     -11175.417     -10583.556     -20362.174      14478.055    
   1094000   2794.5873     -11161.158     -10537.316     -42478.875      14527.134    
   1095000   2740.0967     -11164.188     -10552.51      -14309.572      14566.331    
   1096000   2789.2765     -11162.695     -10540.038     -19536.267      14520.097    
   1097000   2646.1018     -11148.717     -10558.022     -16056.556      14475.119    
   1098000   2784.0274     -11148.913     -10527.429      3213.6131      14516.124    
   1099000   2722.0826     -11169.266     -10561.61       64304.625      14434.955    
   1100000   2669.9611     -11170.569     -10574.547     -12516.381      14496.334    
   1101000   2722.9356     -11175.768     -10567.921     -37713.23       14433.618    
   1102000   2765.559      -11157.871     -10540.509     -6689.2698      14577.198    
   1103000   2715.9979     -11181.428     -10575.13       2699.7226      14444.811    
   1104000   2693.5136     -11177.94      -10576.661      8353.6718      14417.074    
   1105000   2639.5674     -11199.039     -10609.803      9027.5362      14497.808    
   1106000   2689.9393     -11173.547     -10573.066      9939.5929      14462.501    
   1107000   2637.8853     -11149.592     -10560.731     -364.619        14456.647    
   1108000   2792.6514     -11178.228     -10554.819     -15705.895      14523.062    
   1109000   2773.2607     -11152.374     -10533.293      26971.728      14495.77     
   1110000   2778.1556     -11138.488     -10518.314     -32464.22       14493.772    
   1111000   2699.9962     -11138.287     -10535.561     -21064.375      14479.627    
   1112000   2762.8645     -11175.117     -10558.356      23040.833      14413.276    
   1113000   2742.4394     -11134.878     -10522.677     -21300.947      14439.531    
   1114000   2697.5124     -11141.67      -10539.498      29105.677      14429.824    
   1115000   2653.2473     -11126.266     -10533.976      60074.678      14505.373    
   1116000   2807.3129     -11136.742     -10510.059     -55899.861      14498.564    
   1117000   2764.273      -11132.931     -10515.856      3631.038       14480.773    
   1118000   2731.7665     -11138.085     -10528.267      16174.229      14565.111    
   1119000   2749.3726     -11113.845     -10500.096      4680.0397      14579.26     
   1120000   2748.2546     -11152.582     -10539.083      746.38485      14441.117    
   1121000   2716.3525     -11151.924     -10545.547      7460.7006      14487.019    
   1122000   2740.4931     -11165.343     -10553.576      22068.016      14518.904    
   1123000   2788.9183     -11150.303     -10527.726      32913.513      14387.906    
   1124000   2731.9537     -11137.955     -10528.095     -60115.848      14528.417    
   1125000   2733.8571     -11149.917     -10539.632     -19492.569      14504.895    
   1126000   2777.4767     -11137.404     -10517.381      106116.3       14540.705    
   1127000   2723.2697     -11114.322     -10506.4       -50340.884      14570.083    
   1128000   2682.1898     -11124.729     -10525.977     -25850.289      14521.104    
   1129000   2752.2838     -11103.462     -10489.063     -22724.993      14588.249    
   1130000   2758.4701     -11144.753     -10528.974      40602.499      14447.185    
   1131000   2738.2816     -11160.683     -10549.41      -31113.347      14552.86     
   1132000   2839.7804     -11131.968     -10498.037      32222.143      14518.877    
   1133000   2767.7611     -11143.201     -10525.348      33063.318      14465.038    
   1134000   2701.0621     -11128.52      -10525.556     -11776.792      14484.864    
   1135000   2814.3648     -11127.855     -10499.598      7497.6672      14565.5      
   1136000   2814.391      -11124.079     -10495.816      30152.945      14533.626    
   1137000   2696.8475     -11139.258     -10537.235     -4137.3752      14547.359    
   1138000   2838.1854     -11122.287     -10488.712      19321.366      14470.382    
   1139000   2912.956      -11099.405     -10449.139      3129.9608      14533.075    
   1140000   2749.1427     -11121.159     -10507.461      8644.2803      14545.279    
   1141000   2815.3739     -11116.084     -10487.601      43473.306      14551.733    
   1142000   2722.1889     -11094.197     -10486.517      43715.263      14537.177    
   1143000   2739.8796     -11104.129     -10492.499      14313.952      14591.769    
   1144000   2781.779      -11119.222     -10498.24       16426.77       14541.596    
   1145000   2868.5753     -11090.029     -10449.67       6738.1996      14580.552    
   1146000   2823.366      -11125.176     -10494.91       3974.851       14576.098    
   1147000   2785.6686     -11083.412     -10461.561     -3183.7248      14590.953    
   1148000   2770.222      -11108.33      -10489.927     -5192.3235      14508.982    
   1149000   2866.9062     -11104.312     -10464.326     -5136.5163      14585.402    
   1150000   2736.2238     -11079.587     -10468.774      10948.551      14566.159    
   1151000   2971.1516     -11078.108     -10414.851     -5374.5582      14612.405    
   1152000   2737.2747     -11117.667     -10506.619     -30330.476      14558.897    
   1153000   2863.8165     -11136.354     -10497.058      19029.691      14439.784    
   1154000   2909.1802     -11081.304     -10431.881     -26785.502      14521.377    
   1155000   2854.1432     -11099.706     -10462.569      8398.7312      14538.246    
   1156000   2839.9609     -11065.862     -10431.891      6326.5684      14561.152    
   1157000   2814.07       -11080.247     -10452.056      3511.3751      14574.559    
   1158000   2710.357      -11080.615     -10475.576     -13062.931      14558.937    
   1159000   2866.9209     -11119.391     -10479.402      21837.355      14484.329    
   1160000   2846.8162     -11085.992     -10450.49       7169.2965      14550.968    
   1161000   2752.3512     -11103.487     -10489.073      17077.049      14498.544    
   1162000   2908.8311     -11120.235     -10470.89       12841.493      14523.938    
   1163000   2668.3386     -11093.325     -10497.666     -59833.75       14634.57     
   1164000   2867.3555     -11113.585     -10473.499     -35425.475      14559.894    
   1165000   2797.1359     -11097.876     -10473.465     -56714.825      14569.164    
   1166000   2788.8582     -11133.019     -10510.456      24596.75       14483.126    
   1167000   2847.4239     -11101.806     -10466.169     -28036.289      14521.186    
   1168000   2845.6989     -11132.239     -10496.988      50852.682      14611.462    
   1169000   2808.7322     -11083.253     -10456.253      16831.713      14520.556    
   1170000   2772.8931     -11082.647     -10463.648     -45576.493      14563.016    
   1171000   2804.3527     -11102.678     -10476.656     -15697.999      14572.757    
   1172000   2898.2961     -11098.365     -10451.371      6593.0431      14606.437    
   1173000   2747.1529     -11087.378     -10474.125     -47264.424      14543.284    
   1174000   2847.9918     -11085.617     -10449.853     -21395.714      14598.559    
   1175000   2910.5935     -11065.506     -10415.767      25659.919      14565.195    
   1176000   2883.2215     -11103.168     -10459.54      -57615.787      14558.482    
   1177000   2847.9355     -11055.413     -10419.662     -24412.448      14654.159    
   1178000   2939.8644     -11077.959     -10421.686      9244.3803      14560.556    
   1179000   2852.2998     -11098.263     -10461.537      40636.059      14513.501    
   1180000   2866.8758     -11085.475     -10445.495      53211.359      14487.29     
   1181000   2894.8128     -11076.78      -10430.564     -22247.848      14524.288    
   1182000   2966.8999     -11083.342     -10421.034     -26196.037      14534.918    
   1183000   2800.9615     -11070.13      -10444.865      2244.6398      14566.562    
   1184000   2882.5352     -11072.015     -10428.54       26328.865      14570.28     
   1185000   2838.75       -11064.552     -10430.851     -23987.579      14571.458    
   1186000   2902.5148     -11094.863     -10446.928     -28995.124      14613.359    
   1187000   2800.215      -11081.436     -10456.338     -8202.3902      14521.835    
   1188000   2851.7315     -11121.425     -10484.826     -24477.459      14546.596    
   1189000   2845.2291     -11080.745     -10445.598     -27060.166      14554.04     
   1190000   2826.2862     -11098.142     -10467.224      13987.957      14600.943    
   1191000   2831.9071     -11085.557     -10453.384     -20083.679      14552.722    
   1192000   2905.4459     -11055.076     -10406.487      3818.6105      14563.932    
   1193000   2863.5141     -11088.699     -10449.47       10101.164      14610.911    
   1194000   2889.8856     -11041.227     -10396.111     -49948.081      14636.859    
   1195000   2909.6528     -11048.526     -10398.997     -4510.8738      14623.573    
   1196000   2951.9572     -11088.694     -10429.722     -2657.9193      14518.831    
   1197000   2979.3665     -11065.854     -10400.764      5817.8791      14594.613    
   1198000   2958.0434     -11050.858     -10390.527      26297.783      14562.479    
   1199000   2841.0493     -11122.183     -10487.969     -8252.0699      14555.359    
   1200000   2893.4031     -11080.683     -10434.782     -20188.968      14577.596    
   1201000   2963.5354     -11055.887     -10394.33      -3265.2261      14594.496    
   1202000   2886.131      -11058.086     -10413.808     -61492.12       14632.755    
   1203000   2935.5647     -11008.848     -10353.535     -17991.58       14727.228    
   1204000   2870.5484     -11048.798     -10407.999      75890.984      14560.407    
   1205000   2944.9318     -11059.417     -10402.013      7549.3742      14698.137    
   1206000   2878.6384     -11043.211     -10400.606      14254.535      14704.431    
   1207000   2893.221      -11042.556     -10396.695     -4260.3207      14599.299    
   1208000   2937.1577     -11040.837     -10385.169      21696.97       14613.565    
   1209000   2891.2388     -11040.889     -10395.471     -80254.239      14695.827    
   1210000   2865.8978     -11078.464     -10438.703      48106.311      14625.532    
   1211000   2856.1047     -11005.17      -10367.595     -17619.716      14642.959    
   1212000   2911.3831     -11045.349     -10395.435     -4809.7292      14679.556    
   1213000   3009.4979     -11010.018     -10338.201     -1456.7598      14708.451    
   1214000   2997.0568     -11027.588     -10358.548      13136.889      14666.077    
   1215000   2908.9531     -11064.881     -10415.509     -34080.092      14603.405    
   1216000   2986.2815     -11041.215     -10374.581      31884.13       14606.413    
   1217000   2910.3886     -11030.923    