LAMMPS (29 Sep 2021)
  using 1 OpenMP thread(s) per MPI task
Reading data file ...
  orthogonal box = (-0.072926862 -0.058159411 0.0000000) to (101.71599 101.70122 620.30400)
  2 by 1 by 12 MPI processor grid
  reading atoms ...
  442392 atoms
  reading velocities ...
  442392 velocities
  read_data CPU = 4.587 seconds
221194 atoms in group g_left
221198 atoms in group g_right

CITE-CITE-CITE-CITE-CITE-CITE-CITE-CITE-CITE-CITE-CITE-CITE-CITE

Your simulation uses code contributions which should be cited:
- GPU package (short-range, long-range and three-body potentials):
The log file lists these citations in BibTeX format.

CITE-CITE-CITE-CITE-CITE-CITE-CITE-CITE-CITE-CITE-CITE-CITE-CITE


--------------------------------------------------------------------------
- Using acceleration for eam/alloy:
-  with 12 proc(s) per device.
-  Horizontal vector operations: ENABLED
-  Shared memory system: No
--------------------------------------------------------------------------
Device 0: Tesla V100-SXM2-32GB, 80 CUs, 28/32 GB, 1.5 GHZ (Mixed Precision)
Device 1: Tesla V100-SXM2-32GB, 80 CUs, 1.5 GHZ (Mixed Precision)
--------------------------------------------------------------------------

Initializing Device and compiling on process 0...Done.
Initializing Devices 0-1 on core 0...Done.
Initializing Devices 0-1 on core 1...Done.
Initializing Devices 0-1 on core 2...Done.
Initializing Devices 0-1 on core 3...Done.
Initializing Devices 0-1 on core 4...Done.
Initializing Devices 0-1 on core 5...Done.
Initializing Devices 0-1 on core 6...Done.
Initializing Devices 0-1 on core 7...Done.
Initializing Devices 0-1 on core 8...Done.
Initializing Devices 0-1 on core 9...Done.
Initializing Devices 0-1 on core 10...Done.
Initializing Devices 0-1 on core 11...Done.

Setting up Verlet run ...
  Unit style    : metal
  Current step  : 0
  Time step     : 0.00025
Per MPI rank memory allocation (min/avg/max) = 8.415 | 11.06 | 11.70 Mbytes
Step Time Temp Press PotEng KinEng TotEng Volume 
       0            0    2020.9297    16383.101   -1712948.3    115563.88   -1597384.5    6425094.9 
     100        0.025    2020.5107    16368.658   -1712945.1    115539.92   -1597405.2    6419915.9 
     200         0.05    2020.3216    16385.219   -1712934.4    115529.11   -1597405.3    6414736.9 
     300        0.075    2020.1438    16407.437   -1712921.9    115518.94     -1597403    6409557.9 
     400          0.1    2020.3891    16418.309   -1712942.7    115532.97   -1597409.7    6404378.9 
     500        0.125    2020.6201     16436.32   -1712960.7    115546.18   -1597414.5    6399199.9 
     600         0.15     2020.476     16453.59   -1712946.8    115537.94   -1597408.9    6394020.9 
     700        0.175    2020.5937    16454.393   -1712946.2    115544.67   -1597401.6      6388842 
     800          0.2    2020.4393    16457.565   -1712937.6    115535.84   -1597401.8      6383663 
     900        0.225    2020.2127    16472.355   -1712925.5    115522.88   -1597402.6      6378484 
    1000         0.25    2020.8638     16470.61   -1712959.5    115560.12   -1597399.4      6373305 
    1100        0.275     2020.293    16487.229   -1712933.1    115527.48   -1597405.6      6368126 
    1200          0.3    2019.6179    16497.585   -1712913.5    115488.87   -1597424.6      6362947 
    1300        0.325    2020.4795    16493.887     -1712970    115538.14   -1597431.9      6357768 
    1400         0.35    2019.8764    16532.123   -1712921.3    115503.65   -1597417.6      6352589 
    1500        0.375    2020.3573    16541.472   -1712937.1    115531.15   -1597405.9      6347410 
    1600          0.4    2020.3438    16540.863   -1712944.1    115530.38   -1597413.7    6342231.1 
    1700        0.425    2020.4117    16533.447   -1712961.7    115534.27   -1597427.5    6337052.1 
    1800         0.45    2019.6556    16553.915   -1712918.6    115491.03   -1597427.6    6331873.1 
    1900        0.475    2020.2145    16558.941   -1712943.3    115522.99   -1597420.3    6326694.1 
    2000          0.5     2020.153    16586.271   -1712943.5    115519.47     -1597424    6321515.1 
    2100        0.525    2019.6236    16609.312     -1712927     115489.2   -1597437.8    6316336.1 
    2200         0.55    2019.7815    16617.755   -1712941.7    115498.23   -1597443.5    6311157.1 
    2300        0.575    2019.7503    16635.148   -1712938.7    115496.44   -1597442.3    6305978.1 
    2400          0.6    2020.5341    16649.383   -1712990.2    115541.26     -1597449    6300799.1 
    2500        0.625    2018.7278     16698.72   -1712898.3    115437.97   -1597460.3    6295620.2 
    2600         0.65    2019.4339     16692.62   -1712942.8    115478.35   -1597464.5    6290441.2 
    2700        0.675    2019.2567    16721.368   -1712929.7    115468.22   -1597461.5    6285262.2 
    2800          0.7    2019.3382    16726.601     -1712937    115472.87   -1597464.1    6280083.2 
    2900        0.725    2019.4696    16749.577     -1712951    115480.39   -1597470.6    6274904.2 
    3000         0.75    2019.4375    16765.929   -1712947.9    115478.56   -1597469.4    6269725.2 
    3100        0.775    2019.0632    16777.881   -1712917.3    115457.15   -1597460.1    6264546.2 
    3200          0.8    2019.3783    16788.931   -1712930.4    115475.17   -1597455.2    6259367.2 
    3300        0.825    2020.0859    16798.728   -1712969.9    115515.63   -1597454.2    6254188.2 
    3400         0.85    2019.8161    16811.999   -1712949.4    115500.21   -1597449.2    6249009.3 
    3500        0.875    2019.7367    16821.687   -1712939.8    115495.66   -1597444.2    6243830.3 
    3600          0.9    2019.5566    16835.099   -1712934.7    115485.36   -1597449.4    6238651.3 
    3700        0.925    2019.4607    16842.173   -1712943.5    115479.88   -1597463.6    6233472.3 
    3800         0.95    2019.2233    16849.879   -1712939.8     115466.3   -1597473.5    6228293.3 
    3900        0.975    2019.3145    16866.043   -1712943.4    115471.52   -1597471.9    6223114.3 
    4000            1    2019.8507    16867.162     -1712968    115502.18   -1597465.8    6217935.3 
    4100        1.025    2018.3502    16908.647     -1712882    115416.38   -1597465.6    6212756.3 
    4200         1.05    2019.1647    16902.654     -1712932    115462.96     -1597469    6207577.3 
    4300        1.075    2019.8245    16890.085     -1712972    115500.68   -1597471.3    6202398.4 
    4400          1.1    2019.3074    16904.422   -1712944.7    115471.11   -1597473.5    6197219.4 
    4500        1.125    2019.1473    16909.717   -1712938.9    115461.96     -1597477    6192040.4 
    4600         1.15    2019.0372    16901.577     -1712933    115455.67   -1597477.4    6186861.4 
    4700        1.175    2021.0354    16833.485   -1713041.5    115569.93   -1597471.5    6181682.4 
    4800          1.2    2023.5288     16714.17   -1713174.7    115712.51   -1597462.2    6176503.4 
    4900        1.225    2030.2317    16545.836   -1713553.2     116095.8   -1597457.4    6171324.4 
    5000         1.25    2039.2295    16477.403   -1714063.8    116610.33   -1597453.5    6166145.4 
    5100        1.275    2029.6777    16922.898     -1713513    116064.13   -1597448.9    6160966.4 
    5200          1.3    2014.5329    18451.799     -1712642    115198.09   -1597443.9    6155787.5 
    5300        1.325    2002.2126    20668.847     -1711931    114493.57   -1597437.4    6150608.5 
    5400         1.35    1989.8286    22526.671   -1711215.7    113785.41   -1597430.3    6145429.5 
    5500        1.375    1976.7919    23862.492     -1710467    113039.93   -1597427.1    6140250.5 
    5600          1.4    1966.1652    25419.902   -1709860.7    112432.25   -1597428.4    6135071.5 
    5700        1.425    1952.6684    27124.471   -1709090.1    111660.46   -1597429.7    6129892.5 
    5800         1.45    1944.1328    28671.238     -1708596    111172.37   -1597423.6    6124713.5 
    5900        1.475    1932.2983    30185.794   -1707907.8    110495.63   -1597412.2    6119534.5 
    6000          1.5    1922.1518    31814.817     -1707328    109915.42   -1597412.6    6114355.5 
    6100        1.525    1910.5453    33431.374   -1706681.2    109251.71   -1597429.4    6109176.6 
    6200         1.55    1898.5274    35085.989   -1706009.9    108564.49   -1597445.4    6103997.6 
    6300        1.575     1886.576    36737.713   -1705326.9    107881.06   -1597445.9    6098818.6 
    6400          1.6    1873.8592    38574.824   -1704592.4    107153.88   -1597438.5    6093639.6 
    6500        1.625    1861.0496    40269.656   -1703864.5    106421.38   -1597443.1    6088460.6 
    6600         1.65    1857.9972    41317.647   -1703707.9    106246.83     -1597461    6083281.6 
    6700        1.675      1863.97    41398.248     -1704061    106588.37   -1597472.6    6078102.6 
    6800          1.7    1859.4824    41302.121   -1703801.3    106331.76   -1597469.5    6072923.6 
    6900        1.725    1858.1737    41353.706     -1703718    106256.92   -1597461.1    6067744.7 
    7000         1.75    1856.6011     41777.44   -1703625.4       106167   -1597458.4    6062565.7 
    7100        1.775     1850.885    42423.379   -1703300.3    105840.13   -1597460.2    6057386.7 
    7200          1.8    1852.9097     42840.95   -1703420.3    105955.91   -1597464.4    6052207.7 
    7300        1.825    1848.5681    43283.068     -1703178    105707.64   -1597470.4    6047028.7 
    7400         1.85    1850.5469    43791.956   -1703296.2     105820.8   -1597475.4    6041849.7 
    7500        1.875    1848.7776     44360.23   -1703197.5    105719.62   -1597477.9    6036670.7 
    7600          1.9    1848.6164    44860.669   -1703189.1     105710.4   -1597478.7    6031491.7 
    7700        1.925    1846.3502    45339.185   -1703058.8    105580.81   -1597477.9    6026312.7 
    7800         1.95    1845.0304    45825.716   -1702979.4    105505.34   -1597474.1    6021133.8 
    7900        1.975    1843.1689    46309.983   -1702865.2    105398.89   -1597466.3    6015954.8 
    8000            2    1839.1616    46855.428   -1702634.2    105169.74   -1597464.4    6010775.8 
    8100        2.025    1833.0544    47350.101   -1702292.4    104820.51   -1597471.9    6005596.8 
    8200         2.05    1825.4674    47816.463   -1701869.3    104386.66   -1597482.7    6000417.8 
    8300        2.075    1819.4222    48259.838     -1701525    104040.97     -1597484    5995238.8 
    8400          2.1    1815.1993    48631.269   -1701275.2     103799.5   -1597475.8    5990059.8 
    8500        2.125    1811.3415    48962.927   -1701050.2    103578.89   -1597471.3    5984880.8 
    8600         2.15    1806.7225    49289.584   -1700788.6    103314.76   -1597473.8    5979701.8 
    8700        2.175    1801.7123    49642.864   -1700505.7    103028.26   -1597477.4    5974522.9 
    8800          2.2    1795.3151     50007.43   -1700142.2    102662.44   -1597479.8    5969343.9 
    8900        2.225    1790.3754    50307.946   -1699859.8    102379.97   -1597479.8    5964164.9 
    9000         2.25    1783.2047    50676.045   -1699450.3    101969.93   -1597480.3    5958985.9 
    9100        2.275    1777.7487    51007.868     -1699142    101657.94   -1597484.1    5953806.9 
    9200          2.3    1772.3065    51392.375   -1698829.8    101346.73   -1597483.1    5948627.9 
    9300        2.325    1766.4215    51790.143   -1698490.8    101010.21   -1597480.6    5943448.9 
    9400         2.35    1760.9242    52205.161   -1698176.7    100695.85   -1597480.9    5938269.9 
    9500        2.375    1756.4029    52733.003   -1697914.3    100437.31     -1597477    5933090.9 
    9600          2.4    1750.7369    53400.241   -1697573.7    100113.31   -1597460.4      5927912 
    9700        2.425    1747.6412    54169.174   -1697375.2    99936.286     -1597439      5922733 
    9800         2.45     1742.743    55082.529   -1697094.4    99656.189   -1597438.2      5917554 
    9900        2.475    1738.9773    56060.772   -1696895.7     99440.85   -1597454.8      5912375 
   10000          2.5    1733.9316    57230.159   -1696618.4     99152.32   -1597466.1      5907196 
   10100        2.525    1728.2194    58630.695   -1696286.1    98825.676   -1597460.4      5902017 
   10200         2.55    1720.7527    60156.046     -1695850    98398.703   -1597451.3      5896838 
   10300        2.575    1710.8936    61736.678   -1695289.4    97834.924   -1597454.4      5891659 
   10400          2.6    1698.7136    63397.484   -1694602.1    97138.434   -1597463.7      5886480 
   10500        2.625     1686.021    65108.899   -1693880.6    96412.622   -1597467.9    5881301.1 
   10600         2.65    1674.1115    66836.448   -1693197.3    95731.599   -1597465.7    5876122.1 
   10700        2.675    1660.4408    68613.052   -1692418.9    94949.857   -1597469.1    5870943.1 
   10800          2.7    1647.3367    70361.787   -1691681.1    94200.516   -1597480.6    5865764.1 
   10900        2.725    1634.6239    72081.328   -1690961.1    93473.558   -1597487.5    5860585.1 
   11000         2.75    1623.3813    73773.228   -1690317.7    92830.666     -1597487    5855406.1 
   11100        2.775    1610.1512    75566.246   -1689560.9    92074.121   -1597486.7    5850227.1 
   11200          2.8     1597.416    77356.068   -1688833.5    91345.878   -1597487.6    5845048.1 
   11300        2.825    1586.1844    79076.062   -1688187.8    90703.614   -1597484.1    5839869.1 
   11400         2.85    1576.3497    80707.936   -1687620.8     90141.23   -1597479.6    5834690.2 
   11500        2.875    1567.5399    82305.685   -1687117.8    89637.459   -1597480.4    5829511.2 
   11600          2.9    1558.7837    83902.356   -1686623.4    89136.747   -1597486.6    5824332.2 
   11700        2.925    1551.5492    85469.288   -1686211.5    88723.051   -1597488.5    5819153.2 
   11800         2.95    1543.5322    87058.084   -1685744.8    88264.612   -1597480.2    5813974.2 
   11900        2.975    1535.2593    88593.793   -1685265.6    87791.538   -1597474.1    5808795.2 
   12000            3    1527.6393    90108.159   -1684834.8    87355.801     -1597479    5803616.2 
   12100        3.025    1519.8837    91660.841   -1684401.6     86912.31   -1597489.3    5798437.2 
   12200         3.05    1512.3941    93220.609   -1683976.7    86484.023   -1597492.7    5793258.2 
   12300        3.075    1505.1603     94727.14   -1683561.6    86070.374   -1597491.2    5788079.3 
   12400          3.1    1498.1974    96231.233   -1683163.6    85672.207   -1597491.4    5782900.3 
   12500        3.125    1489.9673    97737.133   -1682695.8     85201.58   -1597494.2    5777721.3 
   12600         3.15    1482.0526    99177.446   -1682248.4    84748.993   -1597499.4    5772542.3 
   12700        3.175    1475.6263    100491.33   -1681884.5    84381.515     -1597503    5767363.3 
   12800          3.2    1468.7192    101742.16   -1681492.7     83986.54   -1597506.1    5762184.3 
   12900        3.225    1459.6761    102944.18     -1680980    83469.424   -1597510.6    5757005.3 
   13000         3.25    1454.0521    103958.64   -1680660.5    83147.823   -1597512.7    5751826.3 
   13100        3.275    1449.0197    104847.11   -1680367.3    82860.055   -1597507.2    5746647.3 
   13200          3.3    1445.8698    105547.37   -1680181.2    82679.931   -1597501.2    5741468.4 
   13300        3.325    1441.7794    106153.31   -1679949.8    82446.029   -1597503.8    5736289.4 
   13400         3.35    1440.0837    106607.75   -1679858.4    82349.062   -1597509.3    5731110.4 
   13500        3.375    1438.5124    106975.88   -1679770.4    82259.207   -1597511.2    5725931.4 
   13600          3.4    1435.8945     107309.7   -1679615.1     82109.51   -1597505.5    5720752.4 
   13700        3.425    1431.8869    107670.56   -1679377.2    81880.342   -1597496.9    5715573.4 
   13800         3.45    1430.1609    107999.12   -1679272.6     81781.64     -1597491    5710394.4 
   13900        3.475    1426.6324    108377.57   -1679066.6    81579.869   -1597486.7    5705215.4 
   14000          3.5    1423.5999     108780.4   -1678886.7     81406.46   -1597480.2    5700036.4 
   14100        3.525    1419.6536    109198.89   -1678653.3    81180.796   -1597472.5    5694857.5 
   14200         3.55    1413.9659    109677.98   -1678327.3    80855.553   -1597471.7    5689678.5 
   14300        3.575    1406.3388     110140.6   -1677896.2    80419.409   -1597476.8    5684499.5 
   14400          3.6    1399.2652    110575.72   -1677492.4    80014.916   -1597477.5    5679320.5 
   14500        3.625    1390.5916    111055.82   -1676995.4     79518.93   -1597476.5    5674141.5 
   14600         3.65    1381.6307     111488.8   -1676486.6    79006.512   -1597480.1    5668962.5 
   14700        3.675    1372.3368    111939.62   -1675957.8    78475.055   -1597482.8    5663783.5 
   14800          3.7    1364.1985    112325.45   -1675489.4    78009.682   -1597479.8    5658604.5 
   14900        3.725     1353.649     112753.8   -1674883.5    77406.421     -1597477    5653425.6 
   15000         3.75    1346.2229    113253.37   -1674461.6    76981.771   -1597479.8    5648246.6 
   15100        3.775    1336.7638    113786.23   -1673918.6    76440.867   -1597477.7    5643067.6 
   15200          3.8    1326.1364    114400.71   -1673300.3    75833.152   -1597467.1    5637888.6 
   15300        3.825    1316.8762    115057.36   -1672761.2    75303.621   -1597457.6    5632709.6 
   15400         3.85    1306.5773    115815.85   -1672172.8    74714.693   -1597458.1    5627530.6 
   15500        3.875    1297.5866    116617.59   -1671662.1    74200.575   -1597461.6    5622351.6 
   15600          3.9    1288.2294    117541.47   -1671127.2    73665.495   -1597461.7    5617172.6 
   15700        3.925    1279.1323    118503.75   -1670603.8    73145.293   -1597458.5    5611993.6 
   15800         3.95    1271.1049    119512.56   -1670144.2    72686.256     -1597458    5606814.7 
   15900        3.975    1263.0393     120595.4   -1669686.7    72225.041   -1597461.6    5601635.7 
   16000            4    1257.7603    121731.38   -1669378.2    71923.166     -1597455    5596456.7 
   16100        4.025     1252.287     122893.8   -1669049.4    71610.184   -1597439.2    5591277.7 
   16200         4.05    1246.5211    124157.99   -1668710.5    71280.472   -1597430.1    5586098.7 
   16300        4.075    1243.6484    125426.05   -1668553.6    71116.199   -1597437.4    5580919.7 
   16400          4.1    1238.7418    126773.02     -1668288    70835.621   -1597452.3    5575740.7 
   16500        4.125    1233.6903    128323.23   -1668006.9    70546.759   -1597460.1    5570561.7 
   16600         4.15    1230.2837     130038.7   -1667807.7    70351.959   -1597455.7    5565382.7 
   16700        4.175    1225.1685    131859.43   -1667513.5    70059.451     -1597454    5560203.8 
   16800          4.2     1220.693     133657.7     -1667268    69803.526   -1597464.4    5555024.8 
   16900        4.225     1213.102    135541.61   -1666843.5    69369.447     -1597474    5549845.8 
   17000         4.25     1206.345    137515.34   -1666456.2    68983.058   -1597473.2    5544666.8 
   17100        4.275    1198.7316    139555.98   -1666016.8    68547.699   -1597469.1    5539487.8 
   17200          4.3    1189.8545    141603.98   -1665514.5    68040.073   -1597474.4    5534308.8 
   17300        4.325    1181.4095    143595.34   -1665041.1    67557.161   -1597483.9    5529129.8 
   17400         4.35     1172.296     145547.9     -1664519    67036.019     -1597483    5523950.8 
   17500        4.375    1164.8806    147403.67   -1664085.1    66611.978   -1597473.2    5518771.8 
   17600          4.4    1156.9114    149273.97   -1663623.7    66156.273   -1597467.4    5513592.9 
   17700        4.425    1150.1893    151037.33   -1663241.6    65771.879   -1597469.7    5508413.9 
   17800         4.45    1142.6176    152822.98     -1662814    65338.901   -1597475.1    5503234.9 
   17900        4.475     1136.098    154527.08   -1662443.2    64966.087   -1597477.2    5498055.9 
   18000          4.5    1129.5578    156205.31   -1662068.4    64592.098   -1597476.3    5492876.9 
   18100        4.525    1123.4559     157861.3   -1661721.2    64243.169   -1597478.1    5487697.9 
   18200         4.55    1116.7008    159542.67   -1661347.5    63856.885   -1597490.6    5482518.9 
   18300        4.575     1111.468     161142.5     -1661065    63557.661   -1597507.3    5477339.9 
   18400          4.6    1104.8307    162727.89   -1660694.1    63178.112     -1597516    5472160.9 
   18500        4.625    1098.1001    164300.21   -1660308.7    62793.233   -1597515.4      5466982 
   18600         4.65    1092.5701    165766.73   -1659985.3    62477.011   -1597508.3      5461803 
   18700        4.675    1087.0077     167216.6   -1659663.9    62158.929   -1597504.9      5456624 
   18800          4.7    1079.9764    168646.29   -1659262.6    61756.857   -1597505.7      5451445 
   18900        4.725    1074.3282    170040.04   -1658937.4    61433.872   -1597503.5      5446266 
   19000         4.75     1067.512    171423.83   -1658539.6    61044.101   -1597495.5      5441087 
   19100        4.775    1060.9681    172751.24   -1658159.6    60669.893   -1597489.7      5435908 
   19200          4.8    1053.9689    173982.43     -1657764    60269.659   -1597494.4      5430729 
   19300        4.825    1046.2793    175129.89   -1657332.8    59829.937   -1597502.9      5425550 
   19400         4.85    1038.0743    176218.78   -1656863.7    59360.748     -1597503    5420371.1 
   19500        4.875    1031.0927    177183.59   -1656456.7    58961.517   -1597495.2    5415192.1 
   19600          4.9    1022.2303    178022.18   -1655947.6     58454.73   -1597492.8    5410013.1 
   19700        4.925    1014.9141    178765.29   -1655530.7    58036.365   -1597494.4    5404834.1 
   19800         4.95    1006.5515    179472.02   -1655046.4    57558.164   -1597488.2    5399655.1 
   19900        4.975    998.00095    180182.99   -1654541.7    57069.212   -1597472.5    5394476.1 
   20000            5    990.57431    180800.99   -1654106.1    56644.531   -1597461.6    5389297.1 
   20100        5.025    982.20989    181344.27   -1653632.7    56166.223   -1597466.5    5384118.1 
   20200         5.05    975.77179    181753.02   -1653272.7    55798.071   -1597474.7    5378939.1 
   20300        5.075     967.1939    182151.14     -1652782    55307.556   -1597474.4    5373760.2 
   20400          5.1     960.7131    182419.79   -1652405.4    54936.961   -1597468.5    5368581.2 
   20500        5.125    952.30845    182627.26   -1651920.6    54456.354   -1597464.2    5363402.2 
   20600         5.15    945.40049    182811.17   -1651523.1    54061.333   -1597461.8    5358223.2 
   20700        5.175    937.96438    183069.64   -1651090.4     53636.11   -1597454.3    5353044.2 
   20800          5.2    930.39875    183396.22   -1650645.6     53203.48   -1597442.2    5347865.2 
   20900        5.225    923.92821     183757.1   -1650267.7    52833.472   -1597434.2    5342686.2 
   21000         5.25    914.66185    184252.94   -1649737.3    52303.588   -1597433.7    5337507.2 
   21100        5.275    906.43297    184788.71   -1649270.9    51833.032   -1597437.9    5332328.2 
   21200          5.3    898.75498    185420.25   -1648836.1    51393.978   -1597442.1    5327149.3 
   21300        5.325    891.09882     186047.9   -1648401.5    50956.172   -1597445.3    5321970.3 
   21400         5.35    882.03026    186725.35   -1647885.7    50437.599   -1597448.1    5316791.3 
   21500        5.375    874.56721    187461.29   -1647457.6    50010.836   -1597446.7    5311612.3 
   21600          5.4    866.31859    188312.25   -1646982.8    49539.151   -1597443.7    5306433.3 
   21700        5.425    858.93484    189249.89   -1646559.5    49116.922   -1597442.6    5301254.3 
   21800         5.45    850.54637    190255.34   -1646083.4    48637.239   -1597446.2    5296075.3 
   21900        5.475    844.26012    191307.44   -1645729.9     48277.77   -1597452.1    5290896.3 
   22000          5.5    836.52777    192451.24   -1645290.3    47835.606   -1597454.7    5285717.3 
   22100        5.525    828.22269    193740.35   -1644818.1    47360.693   -1597457.4    5280538.4 
   22200         5.55    822.23375     195070.7   -1644479.4    47018.224   -1597461.2    5275359.4 
   22300        5.575    815.30826    196469.95   -1644085.7      46622.2   -1597463.5    5270180.4 
   22400          5.6     809.6546     197895.1   -1643766.5    46298.904   -1597467.6    5265001.4 
   22500        5.625    803.94747    199391.45   -1643450.8     45972.55   -1597478.3    5259822.4 
   22600         5.65     797.9148    201007.06   -1643117.4    45627.581   -1597489.8    5254643.4 
   22700        5.675    792.74332    202676.86   -1642825.5    45331.857   -1597493.6    5249464.4 
   22800          5.7    787.12932    204402.78   -1642500.5    45010.829   -1597489.6    5244285.4 
   22900        5.725    781.29433    206186.68   -1642163.9    44677.164   -1597486.7    5239106.5 
   23000         5.75    775.55319    208045.68   -1641840.8    44348.865   -1597491.9    5233927.5 
   23100        5.775    771.32112    209968.48   -1641601.3     44106.86   -1597494.4    5228748.5 
   23200          5.8    765.40725    211873.89   -1641255.4    43768.685   -1597486.7    5223569.5 
   23300        5.825     758.8718    213771.53   -1640870.3    43394.964   -1597475.3    5218390.5 
   23400         5.85    752.92155    215684.98     -1640522    43054.708   -1597467.3    5213211.5 
   23500        5.875    746.64052    217651.72   -1640158.5    42695.537   -1597462.9    5208032.5 
   23600          5.9    737.68812    219698.74   -1639640.7    42183.607   -1597457.1    5202853.5 
   23700        5.925    732.26729    221752.26   -1639320.5    41873.625   -1597446.9    5197674.5 
   23800         5.95    723.43222    223906.68   -1638797.5    41368.404   -1597429.1    5192495.6 
   23900        5.975    716.50027     226000.1   -1638364.3    40972.011   -1597392.3    5187316.6 
   24000            6    710.75692    228038.14   -1637963.2    40643.586   -1597319.6    5182137.6 
   24100        6.025    704.49296    230108.02   -1637470.1     40285.39   -1597184.7    5176958.6 
   24200         6.05    700.38374    232088.74   -1636989.6    40050.411   -1596939.2    5171779.6 
   24300        6.075    699.16582    234027.65     -1636496    39980.766   -1596515.2    5166600.6 
   24400          6.1    701.28111    235999.44   -1635965.7    40101.726     -1595864    5161421.6 
   24500        6.125    706.17424    237962.99   -1635390.5    40381.532   -1595008.9    5156242.6 
   24600         6.15    711.48779    239930.74   -1634724.5     40685.38   -1594039.1    5151063.6 
   24700        6.175    719.85723    241786.45     -1634211    41163.974     -1593047    5145884.7 
   24800          6.2    725.33426    243651.04   -1633565.5    41477.169   -1592088.4    5140705.7 
   24900        6.225    729.09307       245507   -1632856.8    41692.112   -1591164.7    5135526.7 
   25000         6.25    733.76664    247282.22   -1632192.3    41959.363   -1590232.9    5130347.7 
   25100        6.275    741.64446    249042.29   -1631647.4    42409.844   -1589237.5    5125168.7 
   25200          6.3    748.74889    250821.01     -1630970      42816.1   -1588153.9    5119989.7 
   25300        6.325    758.32372    252505.66   -1630359.1    43363.623   -1586995.4    5114810.7 
   25400         6.35    768.43835    254185.21     -1629724    43942.013     -1585782    5109631.7 
   25500        6.375      781.346    255791.87   -1629213.1    44680.118     -1584533    5104452.7 
   25600          6.4    792.08955    257408.47   -1628570.3    45294.472   -1583275.8    5099273.8 
   25700        6.425    803.80518    258905.81   -1628007.7    45964.413   -1582043.3    5094094.8 
   25800         6.45    814.47628    260293.13   -1627424.5    46574.625   -1580849.9    5088915.8 
   25900        6.475    825.14212    261544.82     -1626863    47184.535   -1579678.5    5083736.8 
   26000          6.5     835.8655    262683.56   -1626318.7    47797.735   -1578520.9    5078557.8 
   26100        6.525    845.33917    263764.51   -1625724.2    48339.473   -1577384.7    5073378.8 
   26200         6.55    855.30854    264786.25   -1625185.3    48909.557   -1576275.8    5068199.8 
   26300        6.575    864.39977    265794.35   -1624613.7    49429.426   -1575184.3    5063020.8 
   26400          6.6    874.19212    266773.22     -1624094    49989.387   -1574104.6    5057841.8 
   26500        6.625    881.55212    267764.58   -1623453.8    50410.257   -1573043.5    5052662.9 
   26600         6.65    891.28398    268649.02     -1622969     50966.76   -1572002.2    5047483.9 
   26700        6.675    899.67842    269488.35   -1622419.6    51446.783   -1570972.8    5042304.9 
   26800          6.7    908.16062    270234.11   -1621898.1    51931.825   -1569966.2    5037125.9 
   26900        6.725    914.46505    270890.98   -1621296.2    52292.335   -1569003.9    5031946.9 
   27000         6.75    921.34311    271541.55   -1620759.3    52685.647   -1568073.7    5026767.9 
   27100        6.775    926.82263    272163.78   -1620161.4    52998.985   -1567162.4    5021588.9 
   27200          6.8    931.49389    272774.92   -1619560.2    53266.104   -1566294.1    5016409.9 
   27300        6.825    934.23853    273389.19   -1618933.3    53423.052   -1565510.2    5011230.9 
   27400         6.85    934.69223     274121.8   -1618255.7    53448.997   -1564806.7      5006052 
   27500        6.875    933.08377    275020.67   -1617502.5    53357.019   -1564145.5      5000873 
   27600          6.9     930.4904    276132.49   -1616720.7    53208.721     -1563512      4995694 
   27700        6.925    924.58017    277482.72   -1615780.5    52870.753   -1562909.7      4990515 
   27800         6.95    919.14621    279036.11   -1614884.8     52560.02   -1562324.8      4985336 
   27900        6.975    911.49384    280774.91   -1613861.5    52122.431   -1561739.1      4980157 
   28000            7    901.94307    282661.09   -1612742.6    51576.284   -1561166.3      4974978 
   28100        7.025    892.31123    284637.41   -1611660.9    51025.501   -1560635.4      4969799 
   28200         7.05    879.35164    286699.96   -1610429.5    50284.426   -1560145.1      4964620 
   28300        7.075    866.28165    288872.89   -1609209.8    49537.038   -1559672.8    4959441.1 
   28400          7.1    853.31212    291071.52   -1608016.6    48795.395   -1559221.3    4954262.1 
   28500        7.125    839.44585    293322.05   -1606796.7    48002.473   -1558794.3    4949083.1 
   28600         7.15    823.94445    295728.98   -1605489.4    47116.048   -1558373.3    4943904.1 
   28700        7.175    809.68933    298347.36   -1604238.6     46300.89   -1557937.7    4938725.1 
   28800          7.2    794.23657    301070.69   -1602907.7    45417.247   -1557490.5    4933546.1 
   28900        7.225    779.85532    303850.24   -1601637.3    44594.876   -1557042.5    4928367.1 
   29000         7.25    765.99356     306769.9   -1600381.2    43802.212     -1556579    4923188.1 
   29100        7.275    754.18579    309781.36   -1599205.5    43127.002   -1556078.5    4918009.1 
   29200          7.3    741.25638    312789.99     -1597937    42387.653   -1555549.4    4912830.2 
   29300        7.325    730.40073    315729.01   -1596780.8    41766.888   -1555013.9    4907651.2 
   29400         7.35     720.3906    318581.62   -1595659.2    41194.474   -1554464.7    4902472.2 
   29500        7.375    710.98925     321404.8   -1594533.9    40656.871     -1553877    4897293.2 
   29600          7.4     701.4189    324217.21   -1593352.9    40109.605   -1553243.3    4892114.2 
   29700        7.425    692.95591    327029.07   -1592192.1    39625.662   -1552566.5    4886935.2 
   29800         7.45    687.32096    329789.56   -1591120.9    39303.435   -1551817.4    4881756.2 
   29900        7.475    680.92849    332547.83   -1589898.7    38937.891   -1550960.9    4876577.2 
   30000          7.5    678.03519    335248.28   -1588731.6    38772.442   -1549959.2    4871398.2 
   30100        7.525    676.86834    338073.46   -1587469.8    38705.717   -1548764.1    4866219.3 
   30200         7.55     678.9867    341013.35   -1586120.7    38826.853   -1547293.9    4861040.3 
   30300        7.575    686.84738    344123.74   -1584744.4    39276.354     -1545468    4855861.3 
   30400          7.6    699.38761    347421.58   -1583297.9    39993.449   -1543304.5    4850682.3 
   30500        7.625    712.76118    350828.41     -1581717    40758.197   -1540958.8    4845503.3 
   30600         7.65    727.07252    354353.48   -1580131.2    41576.569   -1538554.6    4840324.3 
   30700        7.675    741.47923     358012.6   -1578496.8    42400.396   -1536096.4    4835145.3 
   30800          7.7    755.56483    361809.14   -1576734.5     43205.86   -1533528.6    4829966.3 
   30900        7.725    772.22265    365667.75   -1574999.3    44158.413   -1530840.9    4824787.4 
   31000         7.75    787.45625    369635.23   -1573091.7    45029.524   -1528062.2    4819608.4 
   31100        7.775     804.4612    373524.64   -1571197.3    46001.927   -1525195.4    4814429.4 
   31200          7.8    824.64324    377263.74   -1569361.7    47156.007   -1522205.7    4809250.4 
   31300        7.825    849.38855     380759.2   -1567652.5    48571.031   -1519081.5    4804071.4 
   31400         7.85    877.98989    384011.53   -1566006.2    50206.557   -1515799.7    4798892.4 
   31500        7.875    909.44426    386999.96   -1564401.2    52005.229   -1512395.9    4793713.4 
   31600          7.9    941.44466    389838.03   -1562762.8    53835.124   -1508927.6    4788534.4 
   31700        7.925    977.47925    392511.97   -1561369.4    55895.709   -1505473.7    4783355.4 
   31800         7.95    1012.3443    394917.52   -1559998.6    57889.414   -1502109.2    4778176.5 
   31900        7.975    1044.8756    397203.83   -1558639.7    59749.667     -1498890    4772997.5 
   32000            8    1075.7796     399374.6   -1557342.7    61516.868   -1495825.8    4767818.5 
   32100        8.025    1100.3396    401569.47   -1555876.2    62921.299   -1492954.9    4762639.5 
   32200         8.05     1122.635    403812.94   -1554481.5    64196.228   -1490285.3    4757460.5 
   32300        8.075    1140.4328    406228.75   -1552992.8    65213.968   -1487778.9    4752281.5 
   32400          8.1    1156.4941    408677.71   -1551509.2    66132.409   -1485376.8    4747102.5 
   32500        8.125    1171.8301    411260.35   -1550029.2    67009.374   -1483019.8    4741923.5 
   32600         8.15    1187.1371     414024.2   -1548551.1    67884.682   -1480666.4    4736744.5 
   32700        8.175    1200.0502    416955.06   -1546924.9    68623.098   -1478301.8    4731565.6 
   32800          8.2    1213.3859    419978.68   -1545337.5    69385.684   -1475951.8    4726386.6 
   32900        8.225    1223.2736    423355.45   -1543617.5    69951.097   -1473666.4    4721207.6 
   33000         8.25     1232.661    426849.11   -1541961.9    70487.899     -1471474    4716028.6 
   33100        8.275    1239.6583    430504.71   -1540250.7    70888.029   -1469362.7    4710849.6 
   33200          8.3    1247.4573    434178.64   -1538598.4    71334.004   -1467264.3    4705670.6 
   33300        8.325    1255.4663    437776.66   -1536943.4    71791.987   -1465151.4    4700491.6 
   33400         8.35    1266.8179    441227.42   -1535445.1    72441.114     -1463004    4695312.6 
   33500        8.375    1279.9774    444463.13   -1534070.8    73193.617   -1460877.2    4690133.6 
   33600          8.4    1294.7893    447575.29     -1532809    74040.614   -1458768.4    4684954.7 
   33700        8.425    1311.9292     450635.7   -1531658.3    75020.733   -1456637.5    4679775.7 
   33800         8.45    1330.2483    453842.43   -1530526.9    76068.285   -1454458.6    4674596.7 
   33900        8.475    1347.3787    457317.58   -1529293.1    77047.865   -1452245.3    4669417.7 
   34000          8.5    1365.1954    461094.48     -1528069    78066.685   -1450002.3    4664238.7 
   34100        8.525    1381.0805    465105.75   -1526725.5    78975.052   -1447750.4    4659059.7 
   34200         8.55    1397.4139    469233.12   -1525403.4     79909.05   -1445494.4    4653880.7 
   34300        8.575    1411.0391    473550.77   -1523922.8    80688.191   -1443234.6    4648701.7 
   34400          8.6    1421.9461    478061.24   -1522282.3     81311.89   -1440970.4    4643522.7 
   34500        8.625     1431.681    482676.13   -1520576.7    81868.567   -1438708.1    4638343.8 
   34600         8.65    1442.8876    487264.88   -1518960.1    82509.399   -1436450.7    4633164.8 
   34700        8.675    1451.0074     491692.7   -1517187.6    82973.716   -1434213.9    4627985.8 
   34800          8.7    1462.4563    495966.76   -1515581.9    83628.405   -1431953.5    4622806.8 
   34900        8.725    1475.9697    500020.26   -1514067.7    84401.148   -1429666.6    4617627.8 
   35000         8.75     1492.934    503678.86   -1512688.2    85371.228     -1427317    4612448.8 
   35100        8.775    1516.0388    506798.02   -1511576.1    86692.441   -1424883.7    4607269.8 
   35200          8.8    1540.8066    509753.94   -1510423.2    88108.754   -1422314.5    4602090.8 
   35300        8.825    1570.3951    512770.27   -1509419.1    89800.727   -1419618.4    4596911.8 
   35400         8.85    1598.5104    515897.77     -1508239    91408.456   -1416830.6    4591732.9 
   35500        8.875     1624.127    519121.95   -1506916.9    92873.305   -1414043.6    4586553.9 
   35600          8.9    1648.1044    522228.24     -1505592    94244.418   -1411347.5    4581374.9 
   35700        8.925    1668.7001    525189.45   -1504171.7    95422.156   -1408749.5    4576195.9 
   35800         8.95    1688.8265    528199.72     -1502713    96573.052   -1406139.9    4571016.9 
   35900        8.975    1709.8238    531384.45   -1501222.1    97773.753   -1403448.3    4565837.9 
   36000            9    1730.8596    534768.36   -1499667.7    98976.651   -1400691.1    4560658.9 
   36100        9.025    1750.7588     538023.1   -1498076.7    100114.56   -1397962.1    4555479.9 
   36200         9.05    1769.3048    541177.06   -1496527.5    101175.08   -1395352.4    4550300.9 
   36300        9.075    1784.2076    544304.84   -1494904.1    102027.28   -1392876.8      4545122 
   36400          9.1    1799.3991    547550.68     -1493354    102895.98     -1390458      4539943 
   36500        9.125    1813.2809    550989.63     -1491794    103689.79   -1388104.2      4534764 
   36600         9.15    1823.3682    554534.32   -1490102.2    104266.62   -1385835.6      4529585 
   36700        9.175    1829.9995    558233.18     -1488298    104645.82   -1383652.2      4524406 
   36800          9.2    1838.1081    561988.63   -1486652.3     105109.5   -1381542.8      4519227 
   36900        9.225    1844.5981    565583.85   -1484952.5    105480.62   -1379471.9      4514048 
   37000         9.25    1853.0081     569088.3   -1483375.2    105961.54   -1377413.7      4508869 
   37100        9.275    1862.0782    572496.16   -1481818.1     106480.2     -1375338      4503690 
   37200          9.3    1873.8464    575878.63   -1480386.6    107153.14   -1373233.5    4498511.1 
   37300        9.325    1885.5251     579394.2   -1478932.9    107820.97     -1371112    4493332.1 
   37400         9.35    1898.1553     583164.6   -1477493.6    108543.21   -1368950.3    4488153.1 
   37500        9.375    1912.3142    587109.33   -1476049.9    109352.86   -1366697.1    4482974.1 
   37600          9.4    1926.8241    591204.45   -1474507.2    110182.59   -1364324.6    4477795.1 
   37700        9.425    1941.7064    595448.76   -1472884.9    111033.62   -1361851.3    4472616.1 
   37800         9.45    1959.0682    599747.96   -1471373.4    112026.42   -1359346.9    4467437.1 
   37900        9.475    1976.1049    603922.59   -1469821.8    113000.64   -1356821.2    4462258.1 
   38000          9.5    1996.0779    607910.54   -1468415.9    114142.77   -1354273.1    4457079.1 
   38100        9.525    2015.8881    611932.85   -1466973.3    115275.59   -1351697.7    4451900.2 
   38200         9.55    2036.9072     615981.6   -1465533.9    116477.54   -1349056.3    4446721.2 
   38300        9.575    2057.7055    620140.24   -1463994.5    117666.85   -1346327.6    4441542.2 
   38400          9.6    2077.9041     624375.9   -1462394.2    118821.88   -1343572.3    4436363.2 
   38500        9.625    2096.6713    628523.79   -1460768.2    119895.05   -1340873.1    4431184.2 
   38600         9.65    2112.6975    632586.28   -1459067.3    120811.49   -1338255.8    4426005.2 
   38700        9.675    2127.0591     636525.3   -1457289.5    121632.74   -1335656.7    4420826.2 
   38800          9.7    2143.9746    639964.85   -1455764.3    122600.02   -1333164.3    4415647.2 
   38900        9.725    2161.9002    642890.57   -1454316.5    123625.07   -1330691.5    4410468.3 
   39000         9.75    2177.9313    645617.04   -1452826.9    124541.79   -1328285.1    4405289.3 
   39100        9.775    2192.5026    648652.68   -1451317.1    125375.03   -1325942.1    4400110.3 
   39200          9.8    2207.0805    652077.44   -1449931.4    126208.64   -1323722.8    4394931.3 
   39300        9.825    2217.5675    655537.36   -1448412.2    126808.33   -1321603.9    4389752.3 
   39400         9.85    2228.8895    658787.08   -1447025.2    127455.76   -1319569.4    4384573.3 
   39500        9.875    2239.4805    661765.79   -1445694.7    128061.39   -1317633.3    4379394.3 
   39600          9.9    2249.1189    664776.43   -1444373.5    128612.55     -1315761    4374215.3 
   39700        9.925    2259.3596    667993.22   -1443155.7    129198.14   -1313957.6    4369036.3 
   39800         9.95    2265.4754    671445.07   -1441772.8    129547.87     -1312225    4363857.4 
   39900        9.975    2269.6453    674969.28   -1440346.6    129786.32   -1310560.3    4358678.4 
   40000           10    2273.0371    678167.41   -1438929.2    129980.27   -1308948.9    4353499.4 
   40100       10.025    2272.7225    681344.27   -1437313.6    129962.28   -1307351.3    4348320.4 
   40200        10.05    2277.2636    684553.61   -1435962.7    130221.96   -1305740.7    4343141.4 
   40300       10.075    2282.8643    687878.36   -1434661.2    130542.23     -1304119    4337962.4 
   40400         10.1    2285.0802    691389.74   -1433157.8    130668.94   -1302488.9    4332783.4 
   40500       10.125    2286.8382    695072.67   -1431602.9    130769.47   -1300833.4    4327604.4 
   40600        10.15    2289.3387    699051.51     -1430015    130912.46   -1299102.6    4322425.4 
   40700       10.175    2292.2135    703266.25   -1428375.2    131076.85   -1297298.3    4317246.5 
   40800         10.2    2295.3973    707556.49   -1426698.2    131258.91   -1295439.3    4312067.5 
   40900       10.225    2301.4836    711998.71   -1425154.5    131606.95   -1293547.5    4306888.5 
   41000        10.25    2305.2802    716937.83   -1423438.8    131824.05   -1291614.8    4301709.5 
   41100       10.275      2300.85    722579.02     -1421199    131570.71   -1289628.2    4296530.5 
   41200         10.3    2292.0321    728728.57   -1418662.6    131066.47   -1287596.1    4291351.5 
   41300       10.325    2281.9025    735152.18   -1415992.4    130487.23   -1285505.2    4286172.5 
   41400        10.35    2263.5139    742103.51     -1412793     129435.7   -1283357.3    4280993.5 
   41500       10.375     2237.095     748967.8   -1409081.8    127924.98   -1281156.8    4275814.5 
   41600         10.4    2217.1531    755492.62     -1405685    126784.63   -1278900.4    4270635.6 
   41700       10.425    2199.5576    761825.36     -1402395    125778.46   -1276616.5    4265456.6 
   41800        10.45    2187.1931    767683.81   -1399369.1    125071.41   -1274297.7    4260277.6 
   41900       10.475    2179.9698    773087.73   -1396593.1    124658.36   -1271934.7    4255098.6 
   42000         10.5    2172.0396       778076   -1393703.6    124204.88   -1269498.7    4249919.6 
   42100       10.525    2175.8324    782457.23   -1391341.6    124421.76   -1266919.9    4244740.6 
   42200        10.55    2173.5804    786234.06   -1388496.2    124292.99   -1264203.2    4239561.6 
   42300       10.575    2178.0365    789085.93   -1385900.7     124547.8   -1261352.9    4234382.6 
   42400         10.6    2177.7243     791643.1   -1382934.6    124529.95   -1258404.6    4229203.6 
   42500       10.625     2173.296    794545.79   -1379658.2    124276.73   -1255381.5    4224024.7 
   42600        10.65    2172.5332    797626.68   -1376623.5     124233.1   -1252390.4    4218845.7 
   42700       10.675    2161.7719    800933.77   -1373131.2    123617.74   -1249513.5    4213666.7 
   42800         10.7    2152.2605    803951.86   -1369822.1    123073.84   -1246748.3    4208487.7 
   42900       10.725    2136.4177    806723.53   -1366208.9    122167.89     -1244041    4203308.7 
   43000        10.75    2120.3495    809473.52     -1362554    121249.06   -1241304.9    4198129.7 
   43100       10.775    2103.7179    812803.69   -1358827.8    120298.01   -1238529.8    4192950.7 
   43200         10.8    2090.0528    816800.22   -1355287.5    119516.59   -1235770.9    4187771.7 
   43300       10.825    2071.7894    820998.49   -1351515.9    118472.22   -1233043.7    4182592.7 
   43400        10.85    2057.0231    825302.53   -1348016.3    117627.83   -1230388.4    4177413.8 
   43500       10.875    2040.3921    829651.59   -1344495.9    116676.81   -1227819.1    4172234.8 
   43600         10.9    2024.3881    834051.52   -1341088.5    115761.65   -1225326.9    4167055.8 
   43700       10.925    2011.0235    838370.56   -1337856.9    114997.41   -1222859.5    4161876.8 
   43800        10.95     1995.643    842780.86   -1334503.5     114117.9   -1220385.6    4156697.8 
   43900       10.975    1983.0927    847354.06   -1331313.8    113400.23   -1217913.6    4151518.8 
   44000           11    1970.1691    852245.86   -1328136.8    112661.22   -1215475.6    4146339.8 
   44100       11.025    1954.5084    857499.11   -1324856.2    111765.68   -1213090.5    4141160.8 
   44200        11.05    1938.3803    863196.88   -1321613.8    110843.42   -1210770.4    4135981.8 
   44300       11.075    1921.1808     869156.7   -1318360.8    109859.89   -1208500.9    4130802.9 
   44400         11.1    1906.2146    875225.32   -1315230.5    109004.07   -1206226.4    4125623.9 
   44500       11.125    1886.5064    881409.21   -1311820.9    107877.08   -1203943.8    4120444.9 
   44600        11.15    1870.7644    887312.61     -1308670     106976.9   -1201693.1    4115265.9 
   44700       11.175    1854.5804    892848.52     -1305546    106051.44   -1199494.5    4110086.9 
   44800         11.2    1841.2996    897880.02   -1302654.9       105292   -1197362.8    4104907.9 
   44900       11.225    1827.8898    902028.76   -1299776.5    104525.18   -1195251.3    4099728.9 
   45000        11.25    1811.5635    905701.67   -1296741.6    103591.58     -1193150    4094549.9 
   45100       11.275     1796.945    909416.64   -1293837.8    102755.65   -1191082.1    4089370.9 
   45200         11.3    1784.8018    913299.04   -1291084.9    102061.26   -1189023.7      4084192 
   45300       11.325    1768.0893    917198.66   -1288033.2    101105.58   -1186927.7      4079013 
   45400        11.35    1755.8217    921159.81   -1285226.3    100404.07   -1184822.2      4073834 
   45500       11.375    1741.7089    924837.84     -1282265    99597.057     -1182668      4068655 
   45600         11.4    1729.7191    928602.44   -1279313.6    98911.434   -1180402.2      4063476 
   45700       11.425    1717.8702    932345.68   -1276247.6    98233.871   -1178013.8      4058297 
   45800        11.45    1704.1153     936190.9   -1272995.8    97447.319   -1175548.5      4053118 
   45900       11.475    1693.2048    939943.14   -1269879.4    96823.416     -1173056      4047939 
   46000         11.5    1679.3809     943721.2   -1266599.5    96032.918   -1170566.6      4042760 
   46100       11.525    1662.7443    947815.66   -1263120.4    95081.579   -1168038.8    4037581.1 
   46200        11.55    1645.7793     952848.4   -1259620.9    94111.464   -1165509.5    4032402.1 
   46300       11.575    1626.3058    958411.43   -1256006.7    92997.899   -1163008.8    4027223.1 
   46400         11.6    1610.2933    964106.51   -1252598.1    92082.246   -1160515.8    4022044.1 
   46500       11.625    1595.0379    969585.65   -1249255.2    91209.888   -1158045.3    4016865.1 
   46600        11.65    1579.3226    975265.13   -1245917.9     90311.23   -1155606.6    4011686.1 
   46700       11.675    1566.4476    981329.72   -1242768.3    89574.996   -1153193.3    4006507.1 
   46800         11.7    1555.3673     987833.5   -1239702.8    88941.382   -1150761.4    4001328.1 
   46900       11.725    1544.9754    994377.14   -1236656.3    88347.138   -1148309.1    3996149.2 
   47000        11.75    1535.2622    1000799.8   -1233669.5    87791.707   -1145877.8    3990970.2 
   47100       11.775    1524.4936    1007261.5   -1230650.1    87175.917   -1143474.2    3985791.2 
   47200         11.8    1514.9285    1013817.4   -1227683.9    86628.952   -1141054.9    3980612.2 
   47300       11.825    1503.9531    1020440.1   -1224649.5    86001.341   -1138648.1    3975433.2 
   47400        11.85    1493.3011      1027041     -1221687    85392.218   -1136294.8    3970254.2 
   47500       11.875    1478.7575    1033323.1   -1218578.9    84560.566   -1134018.3    3965075.2 
   47600         11.9    1462.3689    1039203.1   -1215379.8    83623.409   -1131756.4    3959896.2 
   47700       11.925    1445.3247    1044982.2   -1212160.8    82648.762   -1129512.1    3954717.2 
   47800        11.95    1428.7293    1050173.4     -1209022    81699.775   -1127322.3    3949538.3 
   47900       11.975    1406.8368    1054466.9   -1205645.3    80447.887   -1125197.4    3944359.3 
   48000           12    1383.8243    1058450.8   -1202232.8    79131.954   -1123100.8    3939180.3 
   48100       12.025    1360.3903    1062514.7   -1198789.3    77791.911   -1120997.4    3934001.3 
   48200        12.05    1338.9016    1066564.1   -1195442.9    76563.115   -1118879.8    3928822.3 
   48300       12.075    1317.6157    1070679.2     -1192132    75345.911   -1116786.1    3923643.3 
   48400         12.1    1294.4566    1074654.1   -1188726.3    74021.592   -1114704.7    3918464.3 
   48500       12.125    1272.6355    1078146.6   -1185383.1    72773.782   -1112609.3    3913285.3 
   48600        12.15    1253.3422    1081269.7   -1182180.5    71670.524     -1110510    3908106.3 
   48700       12.175    1232.0382    1084628.2     -1178836    70452.285   -1108383.7    3902927.4 
   48800         12.2    1215.6836    1088059.7   -1175693.6    69517.072   -1106176.6    3897748.4 
   48900       12.225    1201.0221    1091640.8   -1172560.7     68678.68   -1103882.1    3892569.4 
   49000        12.25    1188.0389    1095584.7   -1169482.8    67936.254   -1101546.5    3887390.4 
   49100       12.275    1173.1697    1099497.5   -1166329.7    67085.981   -1099243.7    3882211.4 
   49200         12.3    1158.4893    1103819.4   -1163164.3    66246.501   -1096917.8    3877032.4 
   49300       12.325    1145.7598    1108932.9   -1160129.8    65518.583   -1094611.2    3871853.4 
   49400        12.35    1130.8517    1114876.2     -1156952    64666.088   -1092285.9    3866674.4 
   49500       12.375    1116.2194      1121133   -1153752.7    63829.362   -1089923.4    3861495.4 
   49600         12.4    1102.0728    1127440.5   -1150505.2    63020.409   -1087484.8    3856316.5 
   49700       12.425    1092.2337    1133851.3     -1147322     62457.77   -1084864.2    3851137.5 
   49800        12.45    1083.4194    1140730.9   -1143936.2    61953.743   -1081982.4    3845958.5 
   49900       12.475    1078.4712    1147986.6   -1140361.2    61670.783   -1078690.5    3840779.5 
   50000         12.5    1086.7024      1155873   -1136870.3    62141.476   -1074728.8    3835600.5 
Loop time of 420.489 on 24 procs for 50000 steps with 442392 atoms

Performance: 2.568 ns/day, 9.344 hours/ns, 118.909 timesteps/s
99.8% CPU use with 24 MPI tasks x 1 OpenMP threads

MPI task timing breakdown:
Section |  min time  |  avg time  |  max time  |%varavg| %total
---------------------------------------------------------------
Pair    | 193.05     | 206.87     | 221.88     |  51.3 | 49.20
Neigh   | 0.071292   | 0.08118    | 0.089911   |   1.9 |  0.02
Comm    | 39.275     | 42.17      | 46.4       |  34.7 | 10.03
Output  | 14.34      | 14.341     | 14.355     |   0.1 |  3.41
Modify  | 122.47     | 137.1      | 148.46     |  53.0 | 32.60
Other   |            | 19.93      |            |       |  4.74

Nlocal:        18433.0 ave       19420 max       16602 min
Histogram: 4 0 0 3 1 0 0 4 4 8
Nghost:        25248.3 ave       26736 max       23555 min
Histogram: 4 0 4 0 0 3 8 1 0 4
Neighs:         0.00000 ave           0 max           0 min
Histogram: 24 0 0 0 0 0 0 0 0 0

Total # of neighbors = 0
Ave neighs/atom = 0.0000000
Neighbor list builds = 449
Dangerous builds = 0


---------------------------------------------------------------------
      Device Time Info (average): 
---------------------------------------------------------------------
Data Transfer:   32.5393 s.
Neighbor copy:   0.0206 s.
Neighbor build:  1.2639 s.
Force calc:      117.5206 s.
Device Overhead: 66.3124 s.
Average split:   1.0000.
Lanes / atom:    4.
Vector width:    32.
Max Mem / Proc:  76.01 MB.
CPU Neighbor:    0.2589 s.
CPU Cast/Pack:   20.1333 s.
CPU Driver_Time: 1.0274 s.
CPU Idle_Time:   54.6469 s.
---------------------------------------------------------------------

Total wall time: 0:07:09
