LAMMPS (29 Sep 2021)
  using 1 OpenMP thread(s) per MPI task
Reading data file ...
  orthogonal box = (-0.29750865 -0.29818520 0.0000000) to (101.94057 101.94125 531.07200)
  2 by 2 by 6 MPI processor grid
  reading atoms ...
  425652 atoms
  reading velocities ...
  425652 velocities
  read_data CPU = 5.552 seconds
212826 atoms in group g_left
212826 atoms in group g_right

CITE-CITE-CITE-CITE-CITE-CITE-CITE-CITE-CITE-CITE-CITE-CITE-CITE

Your simulation uses code contributions which should be cited:
- GPU package (short-range, long-range and three-body potentials):
The log file lists these citations in BibTeX format.

CITE-CITE-CITE-CITE-CITE-CITE-CITE-CITE-CITE-CITE-CITE-CITE-CITE


--------------------------------------------------------------------------
- Using acceleration for eam/alloy:
-  with 12 proc(s) per device.
-  Horizontal vector operations: ENABLED
-  Shared memory system: No
--------------------------------------------------------------------------
Device 0: Tesla V100-SXM2-32GB, 80 CUs, 28/32 GB, 1.5 GHZ (Mixed Precision)
Device 1: Tesla V100-SXM2-32GB, 80 CUs, 1.5 GHZ (Mixed Precision)
--------------------------------------------------------------------------

Initializing Device and compiling on process 0...Done.
Initializing Devices 0-1 on core 0...Done.
Initializing Devices 0-1 on core 1...Done.
Initializing Devices 0-1 on core 2...Done.
Initializing Devices 0-1 on core 3...Done.
Initializing Devices 0-1 on core 4...Done.
Initializing Devices 0-1 on core 5...Done.
Initializing Devices 0-1 on core 6...Done.
Initializing Devices 0-1 on core 7...Done.
Initializing Devices 0-1 on core 8...Done.
Initializing Devices 0-1 on core 9...Done.
Initializing Devices 0-1 on core 10...Done.
Initializing Devices 0-1 on core 11...Done.

Setting up Verlet run ...
  Unit style    : metal
  Current step  : 0
  Time step     : 0.00025
Per MPI rank memory allocation (min/avg/max) = 8.303 | 10.19 | 11.14 Mbytes
Step Time Temp Press PotEng KinEng TotEng Volume 
       0            0    8484.2656    86574.885   -1767444.2    466801.83   -1300642.3    5551170.1 
     100        0.025     8482.647    86691.722   -1767429.7    466712.78   -1300716.9    5540717.3 
     200         0.05    8482.8939    86845.724     -1767443    466726.36   -1300716.7    5530264.6 
     300        0.075    8483.3154    87021.989   -1767434.1    466749.56   -1300684.6    5519811.8 
     400          0.1    8482.8405    87201.429   -1767408.5    466723.42   -1300685.1      5509359 
     500        0.125     8482.569    87359.267   -1767427.9    466708.48   -1300719.4    5498906.3 
     600         0.15    8482.6811    87544.147   -1767447.6    466714.65     -1300733    5488453.5 
     700        0.175    8483.1015    87731.988   -1767452.6    466737.79   -1300714.9    5478000.8 
     800          0.2    8482.5727    87909.203   -1767414.1    466708.69   -1300705.4      5467548 
     900        0.225    8482.7483    88051.526   -1767433.6    466718.35   -1300715.3    5457095.2 
    1000         0.25    8482.6234     88208.33   -1767430.8    466711.48   -1300719.3    5446642.5 
    1100        0.275    8482.7425    88386.177   -1767427.2    466718.03   -1300709.1    5436189.7 
    1200          0.3    8482.7031    88594.847   -1767424.1    466715.87   -1300708.2    5425736.9 
    1300        0.325    8482.7888    88779.419   -1767448.3    466720.58   -1300727.7    5415284.2 
    1400         0.35    8482.4656    88957.765   -1767450.6     466702.8   -1300747.8    5404831.4 
    1500        0.375    8481.7847    89138.542   -1767413.2    466665.34   -1300747.9    5394378.6 
    1600          0.4    8482.3799    89306.386   -1767434.9    466698.08   -1300736.8    5383925.9 
    1700        0.425    8482.4378    89481.164   -1767428.8    466701.27   -1300727.5    5373473.1 
    1800         0.45     8482.374    89662.565   -1767421.8    466697.76     -1300724    5363020.4 
    1900        0.475    8482.6652    89853.694   -1767431.8    466713.78     -1300718    5352567.6 
    2000          0.5    8482.8324      90049.7   -1767432.4    466722.98   -1300709.4    5342114.8 
    2100        0.525    8482.9368    90236.508   -1767438.5    466728.72   -1300709.8    5331662.1 
    2200         0.55    8482.3835    90440.351   -1767409.2    466698.28   -1300710.9    5321209.3 
    2300        0.575    8482.8181    90579.641   -1767440.7    466722.19   -1300718.5    5310756.5 
    2400          0.6    8488.6987    90642.927   -1767782.5    467045.74   -1300736.8    5300303.8 
    2500        0.625    8501.4318    90536.436   -1768498.7    467746.31   -1300752.4      5289851 
    2600         0.65    8504.4947     92452.27   -1768672.4    467914.83   -1300757.5    5279398.2 
    2700        0.675    8434.7093    96374.387   -1764827.5    464075.26   -1300752.3    5268945.5 
    2800          0.7     8371.887     102545.7   -1761367.4    460618.79   -1300748.6    5258492.7 
    2900        0.725    8316.8819    107388.84     -1758343    457592.43   -1300750.6      5248040 
    3000         0.75    8263.6012     112996.5   -1755405.4    454660.94   -1300744.5    5237587.2 
    3100        0.775    8195.7522    117686.13   -1751657.3    450927.91   -1300729.4    5227134.4 
    3200          0.8    8137.1733    123348.93   -1748421.3    447704.92   -1300716.4    5216681.7 
    3300        0.825    8082.3621    128405.35   -1745400.9    444689.22   -1300711.7    5206228.9 
    3400         0.85    8019.3343    133862.04     -1741937    441221.45   -1300715.6    5195776.1 
    3500        0.875    7961.5883    138931.72   -1738772.1    438044.28   -1300727.9    5185323.4 
    3600          0.9    7894.8116    144433.51   -1735107.5    434370.25   -1300737.3    5174870.6 
    3700        0.925    7846.3567     149656.2   -1732437.5    431704.27   -1300733.2    5164417.8 
    3800         0.95    7775.9484    155087.23   -1728551.5    427830.43     -1300721    5153965.1 
    3900        0.975    7726.6239    160254.46   -1725834.9     425116.6   -1300718.3    5143512.3 
    4000            1    7654.2108    165596.48   -1721870.9    421132.46   -1300738.4    5133059.6 
    4100        1.025    7607.9361    171050.99   -1719354.3    418586.44   -1300767.9    5122606.8 
    4200         1.05    7531.1262     176887.6   -1715142.1    414360.38   -1300781.7      5112154 
    4300        1.075    7515.4753    180066.29     -1714275    413499.27   -1300775.7    5101701.3 
    4400          1.1    7542.3677     179359.1   -1715748.5    414978.89   -1300769.6    5091248.5 
    4500        1.125    7515.0882    178338.22     -1714243    413477.97     -1300765    5080795.7 
    4600         1.15    7488.3854    178244.55   -1712767.5    412008.79   -1300758.7      5070343 
    4700        1.175    7528.9611    178760.29   -1714995.6    414241.25   -1300754.4    5059890.2 
    4800          1.2    7484.9669    180718.01   -1712565.6    411820.71   -1300744.9    5049437.4 
    4900        1.225    7495.4087    181536.91   -1713126.6    412395.21   -1300731.4    5038984.7 
    5000         1.25    7517.3403    180973.37   -1714320.8    413601.88     -1300719    5028531.9 
    5100        1.275    7460.7184    181526.98   -1711205.5    410486.56   -1300718.9    5018079.2 
    5200          1.3    7507.3085    181615.27   -1713782.5    413049.94   -1300732.6    5007626.4 
    5300        1.325    7468.1164    182877.95   -1711641.4     410893.6   -1300747.8    4997173.6 
    5400         1.35    7475.1353     183521.9   -1712034.4    411279.78   -1300754.6    4986720.9 
    5500        1.375    7468.1751    184250.06   -1711646.4    410896.83   -1300749.6    4976268.1 
    5600          1.4     7372.966    188266.61   -1706404.5    405658.45     -1300746    4965815.3 
    5700        1.425    7354.2099    191346.73   -1705385.5     404626.5     -1300759    4955362.6 
    5800         1.45    7228.9123    194007.68   -1698505.5    397732.66   -1300772.9    4944909.8 
    5900        1.475    7201.5595    199807.11   -1696995.7    396227.72     -1300768      4934457 
    6000          1.5    7114.0284    204282.99   -1692162.2    391411.78   -1300750.4    4924004.3 
    6100        1.525    7034.9815    207019.95     -1687805    387062.64   -1300742.3    4913551.5 
    6200         1.55    6955.2159     211405.6   -1683431.3    382673.96   -1300757.3    4903098.8 
    6300        1.575    6884.1838    217266.88   -1679538.8    378765.79     -1300773      4892646 
    6400          1.6    6813.2637    222169.32   -1675641.4    374863.79   -1300777.6    4882193.2 
    6500        1.625    6728.2891    226814.34   -1670965.5    370188.52     -1300777    4871740.5 
    6600         1.65    6660.9112    232339.97   -1667265.6     366481.4   -1300784.2    4861287.7 
    6700        1.675    6587.7518    237739.47     -1663255    362456.19   -1300798.8    4850834.9 
    6800          1.7     6523.137    242942.33   -1659700.4    358901.11   -1300799.3    4840382.2 
    6900        1.725    6466.9549    248157.15   -1656593.6    355809.98   -1300783.6    4829929.4 
    7000         1.75    6407.6755    253187.78   -1653316.2    352548.45   -1300767.7    4819476.6 
    7100        1.775    6357.5408     258496.9   -1650549.9    349790.05   -1300759.9    4809023.9 
    7200          1.8    6318.5461    263801.82   -1648395.1    347644.58   -1300750.6    4798571.1 
    7300        1.825    6281.0201    269113.23   -1646304.7     345579.9   -1300724.8    4788118.4 
    7400         1.85     6239.779    274479.68   -1644015.9    343310.83   -1300705.1    4777665.6 
    7500        1.875    6204.9053    280133.02   -1642102.9    341392.09   -1300710.8    4767212.8 
    7600          1.9    6161.5683    285893.21   -1639732.3     339007.7   -1300724.6    4756760.1 
    7700        1.925    6129.3365    291426.95   -1637958.2    337234.32   -1300723.9    4746307.3 
    7800         1.95     6097.736    297271.02   -1636212.7    335495.67   -1300717.1    4735854.5 
    7900        1.975    6058.9079    303261.62   -1634079.7    333359.36   -1300720.4    4725401.8 
    8000            2    6033.2296     309396.3   -1632669.9    331946.54   -1300723.3      4714949 
    8100        2.025    5999.4413    315669.12   -1630794.1    330087.52   -1300706.6    4704496.2 
    8200         2.05    5958.6629    322346.37   -1628519.6     327843.9   -1300675.7    4694043.5 
    8300        2.075    5913.4804    329297.07   -1626023.6    325357.97   -1300665.7    4683590.7 
    8400          2.1    5867.6243    336439.98   -1623513.3    322834.99   -1300678.3      4673138 
    8500        2.125    5816.3853     343522.1   -1620698.9    320015.83     -1300683    4662685.2 
    8600         2.15    5757.3773    350778.05   -1617434.9    316769.23   -1300665.7    4652232.4 
    8700        2.175    5700.1559    358225.97     -1614266    313620.92   -1300645.1    4641779.7 
    8800          2.2    5628.2946    365796.25   -1610311.2    309667.13   -1300644.1    4631326.9 
    8900        2.225    5554.7018     373626.6   -1606266.7    305618.08   -1300648.6    4620874.1 
    9000         2.25      5480.23    381721.17   -1602156.5    301520.66   -1300635.8    4610421.4 
    9100        2.275    5406.1063    389708.69   -1598059.5     297442.4   -1300617.1    4599968.6 
    9200          2.3    5366.1833    394919.87   -1595860.6    295245.85   -1300614.8    4589515.8 
    9300        2.325    5356.0148    397070.72     -1595325    294686.38   -1300638.6    4579063.1 
    9400         2.35    5315.1434    398425.14     -1593097    292437.65   -1300659.4    4568610.3 
    9500        2.375    5299.0405    400232.46   -1592204.8    291551.67   -1300653.2    4558157.6 
    9600          2.4    5292.8163    401866.41   -1591849.7    291209.22   -1300640.5    4547704.8 
    9700        2.425    5253.1456    402375.88   -1589682.4    289026.55   -1300655.8      4537252 
    9800         2.45    5266.9361    401261.06   -1590474.8     289785.3   -1300689.5    4526799.3 
    9900        2.475    5225.6088     400524.3   -1588204.5    287511.48   -1300693.1    4516346.5 
   10000          2.5    5221.3735    400322.65   -1587934.8    287278.46   -1300656.4    4505893.7 
   10100        2.525    5219.4575       400676     -1587792    287173.04   -1300618.9      4495441 
   10200         2.55    5165.8804    400896.72   -1584838.7    284225.24   -1300613.5    4484988.2 
   10300        2.575    5182.1889    400449.68   -1585749.6    285122.53   -1300627.1    4474535.4 
   10400          2.6    5119.0313    401366.55   -1582271.1    281647.62   -1300623.5    4464082.7 
   10500        2.625    5086.7345    403751.48   -1580473.7    279870.66     -1300603    4453629.9 
   10600         2.65    5008.8008    408628.31   -1576176.9    275582.77   -1300594.2    4443177.2 
   10700        2.675    4907.4568    413874.35   -1570604.7    270006.85   -1300597.8    4432724.4 
   10800          2.7    4848.1343    418744.14   -1567334.8    266742.94   -1300591.9    4422271.6 
   10900        2.725     4747.555    424940.45   -1561781.1     261209.1     -1300572    4411818.9 
   11000         2.75    4689.1458    431011.15   -1558549.4    257995.44     -1300554    4401366.1 
   11100        2.775    4606.6019    436900.64   -1553996.6     253453.9   -1300542.7    4390913.3 
   11200          2.8    4549.0292    443906.02   -1550816.7    250286.27   -1300530.4    4380460.6 
   11300        2.825     4511.698    449211.09   -1548759.3    248232.31     -1300527    4370007.8 
   11400         2.85    4450.6786    454084.33   -1545412.6    244875.05   -1300537.6      4359555 
   11500        2.875    4434.6843    459351.88   -1544544.3    243995.04   -1300549.3    4349102.3 
   11600          2.9     4406.657    464807.01     -1543010    242452.99     -1300557    4338649.5 
   11700        2.925    4389.5694    469958.02   -1542078.9    241512.83   -1300566.1    4328196.8 
   11800         2.95     4374.833    475355.16   -1541276.5    240702.04   -1300574.5      4317744 
   11900        2.975    4364.4371    480882.63     -1540713    240130.06     -1300583    4307291.2 
   12000            3    4357.0596    486770.91   -1540318.5    239724.16   -1300594.4    4296838.5 
   12100        3.025    4338.1527    493649.27   -1539295.4     238683.9   -1300611.5    4286385.7 
   12200         3.05    4329.6028    500962.65   -1538841.7    238213.49   -1300628.2    4275932.9 
   12300        3.075    4307.4366    508520.11     -1537625    236993.91     -1300631    4265480.2 
   12400          3.1    4283.9066     516979.7   -1536323.2     235699.3   -1300623.9    4255027.4 
   12500        3.125    4221.9604    528055.83   -1532909.4    232291.04   -1300618.4    4244574.6 
   12600         3.15    4157.1849    539902.86   -1529345.3    228727.11   -1300618.2    4234121.9 
   12700        3.175    4092.7841    551405.75     -1525805    225183.79   -1300621.2    4223669.1 
   12800          3.2    4007.2411    563434.53   -1521102.5    220477.24   -1300625.3    4213216.4 
   12900        3.225    3939.0226    575109.41   -1517351.7    216723.88   -1300627.8    4202763.6 
   13000         3.25    3857.0217       587213   -1512835.4    212212.22   -1300623.2    4192310.8 
   13100        3.275    3778.8273    598771.29   -1508526.9    207909.98   -1300616.9    4181858.1 
   13200          3.3    3701.7793    609222.75   -1504293.1    203670.82   -1300622.2    4171405.3 
   13300        3.325    3638.7893    618018.73   -1500841.2    200205.13   -1300636.1    4160952.5 
   13400         3.35    3578.4458    625177.73   -1497523.2    196885.05   -1300638.1    4150499.8 
   13500        3.375    3516.3832    631710.74   -1494089.9    193470.38   -1300619.5      4140047 
   13600          3.4    3466.4724    637620.59   -1491321.1    190724.31   -1300596.8    4129594.2 
   13700        3.425    3413.3791    643180.73   -1488394.3    187803.13   -1300591.1    4119141.5 
   13800         3.45    3372.8043    648432.93   -1486176.5    185570.71   -1300605.8    4108688.7 
   13900        3.475    3327.9038    653617.39   -1483728.1     183100.3   -1300627.7      4098236 
   14000          3.5    3281.8385    658146.49   -1481204.1     180565.8   -1300638.3    4087783.2 
   14100        3.525    3241.7069    661932.17   -1478988.5    178357.77   -1300630.7    4077330.4 
   14200         3.55    3193.3855    665041.46   -1476314.9    175699.14   -1300615.7    4066877.7 
   14300        3.575    3131.7982    667605.27   -1472915.6    172310.63   -1300604.9    4056424.9 
   14400          3.6    3085.1644    668050.68   -1470345.8    169744.85   -1300600.9    4045972.1 
   14500        3.625    3049.4562     667250.2   -1468384.6     167780.2   -1300604.4    4035519.4 
   14600         3.65    2986.8625    667943.26   -1464951.3    164336.31   -1300614.9    4025066.6 
   14700        3.675    2934.2135    670737.66     -1462060    161439.58   -1300620.4    4014613.8 
   14800          3.7    2878.2335    673975.94   -1458970.7    158359.57   -1300611.1    4004161.1 
   14900        3.725    2809.8943    677291.48   -1455198.7    154599.57   -1300599.1    3993708.3 
   15000         3.75    2765.5716    680401.65   -1452761.8    152160.95   -1300600.8    3983255.6 
   15100        3.775    2694.3692    684198.53   -1448849.6    148243.41   -1300606.2    3972802.8 
   15200          3.8    2640.3318    689085.54   -1445884.7    145270.29   -1300614.4      3962350 
   15300        3.825    2606.9277    693974.46   -1444049.4    143432.41     -1300617    3951897.3 
   15400         3.85     2550.781    698817.55     -1440957    140343.23   -1300613.8    3941444.5 
   15500        3.875    2542.9466    702200.96   -1440532.1    139912.19   -1300619.9    3930991.7 
   15600          3.9    2523.1071    705178.19   -1439463.6    138820.62     -1300643      3920539 
   15700        3.925    2522.7096    708818.74   -1439478.2    138798.75   -1300679.4    3910086.2 
   15800         3.95    2532.3618    714000.51   -1440030.3    139329.81   -1300700.5    3899633.4 
   15900        3.975    2492.6516    720869.06   -1437833.2    137144.97   -1300688.2    3889180.7 
   16000            4    2504.1526    726732.03   -1438432.7    137777.75   -1300654.9    3878727.9 
   16100        4.025    2477.5521    732908.01   -1436938.9     136314.2   -1300624.7    3868275.2 
   16200         4.05    2480.1696     739552.4   -1437075.3    136458.21     -1300617    3857822.4 
   16300        4.075    2473.4636    746183.44   -1436700.1    136089.25   -1300610.9    3847369.6 
   16400          4.1     2457.101    753100.26   -1435773.3    135188.98   -1300584.3    3836916.9 
   16500        4.125    2444.2633       761175   -1435039.3    134482.66   -1300556.6    3826464.1 
   16600         4.15    2404.1914    770064.29   -1432828.7    132277.91   -1300550.8    3816011.3 
   16700        4.175    2373.3327    779699.84   -1431141.5    130580.08   -1300561.5    3805558.6 
   16800          4.2    2306.3898     790225.7   -1427456.9     126896.9     -1300560    3795105.8 
   16900        4.225    2242.4068    800902.97   -1423914.6    123376.57   -1300538.1      3784653 
   17000         4.25     2184.622     811738.8   -1420719.2    120197.27   -1300521.9    3774200.3 
   17100        4.275    2119.6347    824003.35   -1417150.1    116621.69   -1300528.4    3763747.5 
   17200          4.3    2068.5336    835893.77     -1414351    113810.12   -1300540.9    3753294.8 
   17300        4.325    2005.8416    846405.88   -1410896.1    110360.82   -1300535.2      3742842 
   17400         4.35    1947.5148     856845.4   -1407655.6     107151.7   -1300503.9    3732389.2 
   17500        4.375    1887.6208    867761.22   -1404296.8    103856.35   -1300440.4    3721936.5 
   17600          4.4    1840.6523    878453.52   -1401572.6    101272.16   -1300300.4    3711483.7 
   17700        4.425    1805.5766     888933.7   -1399322.5    99342.302   -1299980.2    3701030.9 
   17800         4.45    1770.9847    898026.03     -1396811    97439.064   -1299371.9    3690578.2 
   17900        4.475    1766.7383    907451.48     -1393605     97205.43   -1296399.6    3680125.4 
   18000          4.5    1865.3176    920378.46   -1387044.3    102629.23     -1284415    3669672.6 
   18100        4.525    2071.8301    934695.32   -1383045.7    113991.49   -1269054.2    3659219.9 
   18200         4.55    2108.0309       947903   -1376050.6    115983.25   -1260067.4    3648767.1 
   18300        4.575    2065.3709    963591.04   -1367088.2    113636.11   -1253452.1    3638314.4 
   18400          4.6    2052.3108    980676.02   -1354300.6    112917.54   -1241383.1    3627861.6 
   18500        4.625    2195.3692    1001121.6     -1345904    120788.57   -1225115.4    3617408.8 
   18600         4.65    2206.7527    1021456.3   -1330536.7     121414.9   -1209121.8    3606956.1 
   18700        4.675    2332.1765    1045896.2     -1318286    128315.68   -1189970.3    3596503.3 
   18800          4.7    2503.8428    1070701.6     -1303995     137760.7   -1166234.3    3586050.5 
   18900        4.725    2667.2161    1093039.1   -1291535.7    146749.45   -1144786.2    3575597.8 
   19000         4.75      2741.13    1107469.5   -1280303.1    150816.18   -1129486.9      3565145 
   19100        4.775    2850.3962    1118018.1   -1269563.4    156827.97   -1112735.4    3554692.2 
   19200          4.8    3091.3204    1130274.8   -1259601.9    170083.55   -1089518.3    3544239.5 
   19300        4.825    3368.8061    1144795.5   -1251369.3    185350.73   -1066018.6    3533786.7 
   19400         4.85    3534.2022    1159705.9   -1242072.8    194450.78     -1047622      3523334 
   19500        4.875    3669.2497    1174471.1   -1232740.2    201881.05   -1030859.2    3512881.2 
   19600          4.9     3837.457    1190619.8   -1222433.7    211135.77     -1011298    3502428.4 
   19700        4.925     3945.027    1208980.7   -1209314.1    217054.24   -992259.86    3491975.7 
   19800         4.95    3956.6359    1229397.4   -1195545.9    217692.96   -977852.92    3481522.9 
   19900        4.975    3874.3377    1253311.1     -1179712    213164.94   -966547.09    3471070.1 
   20000            5    3772.1147    1278943.8   -1163589.8    207540.66    -956049.1    3460617.4 
   20100        5.025    3649.6298      1301315   -1147187.1    200801.57   -946385.51    3450164.6 
   20200         5.05    3534.2887    1323634.6   -1131399.5    194455.54   -936943.95    3439711.8 
   20300        5.075    3460.6963    1347403.5   -1116864.9    190406.51   -926458.34    3429259.1 
   20400          5.1    3451.8395    1371097.6   -1105567.4    189919.21   -915648.15    3418806.3 
   20500        5.125    3436.4224    1393977.4   -1095338.3    189070.96   -906267.35    3408353.6 
   20600         5.15    3439.0485    1416948.6   -1086635.1    189215.45   -897419.63    3397900.8 
   20700        5.175    3499.3476    1441874.9   -1078512.6    192533.09   -885979.49      3387448 
   20800          5.2    3618.4403      1467374   -1069449.4    199085.54   -870363.85    3376995.3 
   20900        5.225    3778.3512    1493940.6   -1059590.8    207883.79   -851707.02    3366542.5 
   21000         5.25    3972.0624    1523254.4   -1049590.3    218541.72    -831048.6    3356089.7 
   21100        5.275     4170.527    1553138.1   -1038422.1    229461.18   -808960.87      3345637 
   21200          5.3     4378.172    1582086.1   -1027296.2    240885.75    -786410.4    3335184.2 
   21300        5.325    4595.7383      1609564   -1016360.2    252856.19   -763503.97    3324731.4 
   21400         5.35    4863.9248    1634448.4   -1006973.5    267611.73   -739361.81    3314278.7 
   21500        5.375     5215.666      1653745   -1001422.7    286964.43   -714458.29    3303825.9 
   21600          5.4    5578.9342    1666146.6   -997014.18    306951.34   -690062.84    3293373.2 
   21700        5.425     5943.006    1673452.3      -993048    326982.47   -666065.53    3282920.4 
   21800         5.45     6310.135    1679880.8   -988681.27     347181.8   -641499.47    3272467.6 
   21900        5.475    6632.1447    1688902.4   -982324.12    364898.68   -617425.44    3262014.9 
   22000          5.5    6900.2823    1701674.6   -974667.11    379651.53   -595015.57    3251562.1 
   22100        5.525    7115.4326    1719103.8   -964937.21    391489.04   -573448.17    3241109.3 
   22200         5.55    7261.2919    1739960.5    -952287.1    399514.17   -552772.92    3230656.6 
   22300        5.575     7366.453    1760976.7   -938972.61    405300.11    -533672.5    3220203.8 
   22400          5.6    7423.0225    1783605.8   -924176.78    408412.54   -515764.24      3209751 
   22500        5.625    7501.9881    1808198.7   -911081.92    412757.21   -498324.71    3199298.3 
   22600         5.65    7584.9804    1833477.6   -898771.36    417323.42   -481447.94    3188845.5 
   22700        5.675    7699.0775    1859547.8   -888770.92    423601.01   -465169.91    3178392.8 
   22800          5.7    7834.9357      1885118   -879794.14    431075.89   -448718.25      3167940 
   22900        5.725    7987.9666    1911407.2   -871178.48    439495.61   -431682.87    3157487.2 
   23000         5.75    8115.9105    1939250.6   -861232.84    446535.04    -414697.8    3147034.5 
   23100        5.775    8210.0221    1968391.1   -849587.55    451713.03   -397874.52    3136581.7 
   23200          5.8     8262.972    1998507.1   -835520.26    454626.32   -380893.94    3126128.9 
   23300        5.825    8272.4151    2030915.1   -819186.26    455145.88   -364040.38    3115676.2 
   23400         5.85    8269.1382    2063977.5   -802469.85    454965.58   -347504.27    3105223.4 
   23500        5.875    8257.0512    2095394.5   -785389.17    454300.56   -331088.61    3094770.6 
   23600          5.9    8264.2488      2126269    -769233.8    454696.57   -314537.23    3084317.9 
   23700        5.925     8274.735    2156189.3   -753181.92    455273.52    -297908.4    3073865.1 
   23800         5.95    8301.2878    2184051.5   -738128.27    456734.45   -281393.82    3063412.4 
   23900        5.975     8357.062    2209665.1   -725036.24    459803.13   -265233.11    3052959.6 
   24000            6    8421.9658      2229679   -713615.07    463374.11   -250240.96    3042506.8 
   24100        6.025    8521.4255    2242782.4   -704947.94    468846.36   -236101.59    3032054.1 
   24200         6.05    8592.8309    2252326.8   -695779.88    472775.06   -223004.82    3021601.3 
   24300        6.075    8649.5966    2261731.5   -686859.45     475898.3   -210961.15    3011148.5 
   24400          6.1    8704.1157    2273878.3   -678957.34    478897.92   -200059.42    3000695.8 
   24500        6.125    8717.2233    2290045.5   -669786.45     479619.1   -190167.35      2990243 
   24600         6.15    8711.9546    2310292.4   -660627.27    479329.22   -181298.06    2979790.2 
   24700        6.175    8704.9966    2332600.8   -652039.72    478946.39   -173093.33    2969337.5 
   24800          6.2    8698.1237    2354016.3    -644001.8    478568.24   -165433.56    2958884.7 
   24900        6.225    8714.6442    2376502.3   -637513.14     479477.2   -158035.95      2948432 
   25000         6.25    8763.4771    2399605.1   -632896.64    482163.97   -150732.67    2937979.2 
   25100        6.275    8824.1043    2423934.9   -628567.53    485499.66   -143067.87    2927526.4 
   25200          6.3    8884.8785    2449905.2   -623527.73    488843.44   -134684.29    2917073.7 
   25300        6.325    8933.4569    2478624.1   -616331.64    491516.21   -124815.43    2906620.9 
   25400         6.35    8972.1104    2508733.9   -606179.04    493642.91   -112536.13    2896168.1 
   25500        6.375    9035.2623    2542565.2   -594050.31    497117.51     -96932.8    2885715.4 
   25600          6.4    9043.6204    2578751.7   -576190.29    497577.37   -78612.921    2875262.6 
   25700        6.425    9051.3988    2616466.8   -556914.56    498005.34   -58909.224    2864809.8 
   25800         6.45    9099.6912    2652431.8   -539730.83    500662.37   -39068.463    2854357.1 
   25900        6.475    9098.4221    2687332.1   -519855.78    500592.55    -19263.23    2843904.3 
   26000          6.5    9129.2345    2722885.9   -501471.39    502287.84    816.44382    2833451.6 
   26100        6.525    9134.2311    2758840.3   -480988.69    502562.75    21574.059    2822998.8 
   26200         6.55    9148.1161    2795481.6   -460959.74     503326.7    42366.953      2812546 
   26300        6.575    9117.2707    2831208.8   -438529.15    501629.59    63100.444    2802093.3 
   26400          6.6    9102.7045    2865756.5   -416947.78    500828.16    83880.381    2791640.5 
   26500        6.625    9045.2007    2900969.7   -393268.45    497664.32    104395.87    2781187.7 
   26600         6.65    8960.6776    2939979.4   -368697.05    493013.88    124316.83      2770735 
   26700        6.675    8850.5676    2983742.1   -342810.81    486955.66    144144.85    2760282.2 
   26800          6.7    8717.7615    3027951.2   -316060.85    479648.71    163587.86    2749829.4 
   26900        6.725    8592.2554    3070314.4   -290253.89     472743.4    182489.51    2739376.7 
   27000         6.75    8468.4389    3110572.9   -265022.31    465931.05    200908.74    2728923.9 
   27100        6.775    8367.2323    3152000.7   -241360.28    460362.69    219002.41    2718471.2 
   27200          6.8    8308.0536    3192723.1    -220207.5     457106.7     236899.2    2708018.4 
   27300        6.825    8262.0209    3232609.3   -199784.93       454574    254789.06    2697565.6 
   27400         6.85    8244.7253    3273132.2   -180863.69    453622.39    272758.71    2687112.9 
   27500        6.875    8247.5557    3314892.5   -162749.68    453778.12    291028.44    2676660.1 
   27600          6.9    8265.1771    3356999.4   -144789.11    454747.65    309958.54    2666207.3 
   27700        6.925    8306.9932    3398380.7   -127663.64    457048.36    329384.71    2655754.6 
   27800         6.95    8369.7385    3440927.2    -111413.1    460500.59    349087.48    2645301.8 
   27900        6.975    8450.5564    3481569.8   -95814.129    464947.16    369133.03      2634849 
   28000            7    8563.8427    3519485.4   -81784.142    471180.14       389396    2624396.3 
   28100        7.025    8702.4886    3554466.3   -69232.706     478808.4    409575.69    2613943.5 
   28200         7.05     8860.603    3586833.4   -58065.262    487507.81    429442.55    2603490.8 
   28300        7.075    8975.5736    3617820.6   -44835.568    493833.46    448997.89      2593038 
   28400          7.1    9037.9902    3652106.5   -29433.908     497267.6    467833.69    2582585.2 
   28500        7.125    9045.4007    3691382.1     -11837.3    497675.32    485838.02    2572132.5 
   28600         7.15     9006.724    3734043.7    7660.8514    495547.34     503208.2    2561679.7 
   28700        7.175    8898.0694    3779934.5    30520.593     489569.2    520089.79    2551226.9 
   28800          7.2    8762.4566    3829280.5    54145.893    482107.82    536253.72    2540774.2 
   28900        7.225    8580.8991    3880634.1    79641.993    472118.58    551760.57    2530321.4 
   29000         7.25     8364.785    3934554.9    106081.35    460228.05     566309.4    2519868.6 
   29100        7.275    8120.0694    3989244.1    133454.42    446763.87    580218.28    2509415.9 
   29200          7.3    7891.8899    4044816.4    159396.28    434209.49    593605.77    2498963.1 
   29300        7.325    7648.3711    4100588.4    185932.33    420811.16    606743.48    2488510.4 
   29400         7.35     7410.798    4157108.5    211837.38    407739.95    619577.34    2478057.6 
   29500        7.375    7198.3146    4213660.8    236328.04    396049.18    632377.22    2467604.8 
   29600          7.4    6961.3511    4268270.3    262069.61    383011.52    645081.13    2457152.1 
   29700        7.425     6826.331    4319964.6    282569.73    375582.75    658152.48    2446699.3 
   29800         7.45    6654.1237    4365931.1    305163.33    366107.96    671271.28    2436246.5 
   29900        7.475    6551.0471    4409087.8    324797.22    360436.71    685233.93    2425793.8 
   30000          7.5    6509.0474    4450396.2    341427.74     358125.9    699553.64      2415341 
   30100        7.525    6460.2415    4493656.4    359049.87    355440.61    714490.48    2404888.2 
   30200         7.55    6453.7002    4541183.9    374714.02    355080.71    729794.73    2394435.5 
   30300        7.575    6459.2957    4589749.9    389910.92    355388.58     745299.5    2383982.7 
   30400          7.6    6446.2402    4640358.7    406260.56    354670.27    760930.82      2373530 
   30500        7.625    6429.3127    4693499.2    423371.98    353738.92    777110.91    2363077.2 
   30600         7.65    6406.1244    4751737.4    441708.78     352463.1    794171.89    2352624.4 
   30700        7.675    6370.4053    4815317.2    462852.61    350497.85    813350.46    2342171.7 
   30800          7.7    6363.7145    4885062.9    487670.04    350129.73    837799.77    2331718.9 
   30900        7.725     6426.081    4966006.7    516669.23    353561.12    870230.34    2321266.1 
   31000         7.75    6554.1215    5056505.4    551393.87    360605.86    911999.73    2310813.4 
   31100        7.775    6749.7037    5154655.1    588727.12    371366.74    960093.86    2300360.6 
   31200          7.8       6951.9    5256544.7     629061.8    382491.52    1011553.3    2289907.8 
   31300        7.825    7223.5477      5361634    670326.01     397437.5    1067763.5    2279455.1 
   31400         7.85    7561.1902    5465782.5    711419.29    416014.49    1127433.8    2269002.3 
   31500        7.875    7898.4771      5569636    751997.84    434571.92    1186569.8    2258549.5 
   31600          7.9    8190.9802    5677524.7    795114.03    450665.35    1245779.4    2248096.8 
   31700        7.925    8485.6541    5791458.6    836669.44    466878.23    1303547.7      2237644 
   31800         7.95    8725.7085    5905289.7    878444.16    480085.95    1358530.1    2227191.3 
   31900        7.975    8999.4484    6020940.9    916994.21    495147.04    1412141.3    2216738.5 
   32000            8    9267.4917    6138797.3    955277.78     509894.7    1465172.5    2206285.7 
   32100        8.025    9635.3069    6257622.9    989087.91    530131.79    1519219.7      2195833 
   32200         8.05    10038.744    6377095.3    1023698.5    552328.77    1576027.3    2185380.2 
   32300        8.075    10525.548    6495981.3    1055355.5    579112.59    1634468.1    2174927.4 
   32400          8.1    11052.271    6611415.5    1086688.7    608092.76    1694781.4    2164474.7 
   32500        8.125    11601.928    6720122.5    1117249.5     638334.7    1755584.2    2154021.9 
   32600         8.15    12057.148    6826355.8    1152396.4     663380.8    1815777.2    2143569.1 
   32700        8.175    12451.077    6939974.9    1190835.5    685054.64    1875890.2    2133116.4 
   32800          8.2     12673.28    7066520.3    1236683.2    697280.17    1933963.4    2122663.6 
   32900        8.225    12840.698    7205594.5      1284803    706491.46    1991294.5    2112210.9 
   33000         8.25    12947.275    7345051.8    1334124.9    712355.34    2046480.3    2101758.1 
   33100        8.275    13048.082    7489936.2    1382642.1    717901.67    2100543.7    2091305.3 
   33200          8.3    13096.496    7640359.8    1432345.4    720565.41    2152910.9    2080852.6 
   33300        8.325    13106.204    7791148.7    1483801.4    721099.56      2204901    2070399.8 
   33400         8.35    13103.134    7942433.3    1534545.2    720930.62    2255475.8      2059947 
   33500        8.375    13124.198    8087984.1    1583281.2    722089.57    2305370.8    2049494.3 
   33600          8.4     13255.27    8220296.1    1624344.6    729301.12    2353645.7    2039041.5 
   33700        8.425    13398.051    8336191.6    1664302.1     737156.9      2401459    2028588.7 
   33800         8.45     13614.21    8452815.5    1698719.7    749049.89    2447769.6      2018136 
   33900        8.475    13740.983    8584549.5    1738017.4    756024.91    2494042.3    2007683.2 
   34000          8.5    13932.531    8722821.6    1773870.1    766563.84      2540434    1997230.5 
   34100        8.525    14104.253    8867684.3    1814451.8    776011.92    2590463.8    1986777.7 
   34200         8.55    14274.657    9030251.4    1860876.3     785387.5    2646263.8    1976324.9 
   34300        8.575    14338.897    9213132.7    1921757.8    788921.94    2710679.7    1965872.2 
   34400          8.6    14377.519    9408180.2    1988610.2    791046.93    2779657.1    1955419.4 
   34500        8.625    14353.008    9600420.5    2059637.2    789698.36    2849335.5    1944966.6 
   34600         8.65     14379.23    9789857.9    2128947.6    791141.07    2920088.7    1934513.9 
   34700        8.675    14340.002    9973125.4    2200422.3    788982.75      2989405    1924061.1 
   34800          8.7    14231.781     10169450    2274966.6    783028.44      3057995    1913608.3 
   34900        8.725    14057.411     10373276    2351478.5    773434.68    3124913.2    1903155.6 
   35000         8.75    13956.823     10579694    2421799.5    767900.36    3189699.9    1892702.8 
   35100        8.775    13933.214     10781899    2488046.8    766601.39    3254648.2    1882250.1 
   35200          8.8    14018.339     10987443    2549554.1    771284.95      3320839    1871797.3 
   35300        8.825    14116.404     11191894      2610950    776680.48    3387630.5    1861344.5 
   35400         8.85    14274.522     11389254    2670509.5    785380.04    3455889.5    1850891.8 
   35500        8.875    14359.476     11582349    2733622.5    790054.21    3523676.7      1840439 
   35600          8.9    14268.845     11786870      2805493    785067.74    3590560.7    1829986.2 
   35700        8.925    13990.624     12012881    2884980.8    769760.05    3654740.9    1819533.5 
   35800         8.95    13584.406     12243806      2968652    747410.07      3716062    1809080.7 
   35900        8.975    13115.234     12476365    3052191.1    721596.35    3773787.4    1798627.9 
   36000            9    12552.421     12717760      3139091    690630.58    3829721.5    1788175.2 
   36100        9.025    11977.934     12954120    3225117.7    659022.47    3884140.2    1777722.4 
   36200         9.05    11500.046     13182963    3305385.4    632729.17    3938114.6    1767269.7 
   36300        9.075    11222.429     13399742      3376280    617454.79    3993734.8    1756816.9 
   36400          9.1    11027.651     13612842    3443885.6    606738.14    4050623.8    1746364.1 
   36500        9.125    10919.709     13841877    3510497.9    600799.22    4111297.1    1735911.4 
   36600         9.15    10858.289     14088383    3581233.1     597419.9      4178653    1725458.6 
   36700        9.175     10886.29     14356862    3662555.8    598960.53    4261516.3    1715005.8 
   36800          9.2    11107.584     14654822    3761956.6    611136.03    4373092.6    1704553.1 
   36900        9.225    11517.274     14976047    3868424.1    633677.05    4502101.1    1694100.3 
   37000         9.25     11823.54     15297163    3976937.6    650527.74    4627465.4    1683647.5 
   37100        9.275    12059.992     15621314    4090124.4    663537.27    4753661.6    1673194.8 
   37200          9.3    12395.005     15962043    4203773.4    681969.57      4885743      1662742 
   37300        9.325    12720.827     16298119      4315076    699896.24    5014972.2    1652289.3 
   37400         9.35    13221.299     16637445    4419369.9    727432.04      5146802    1641836.5 
   37500        9.375    14001.418     16982788    4517570.7    770353.95    5287924.7    1631383.7 
   37600          9.4    14822.528     17330969    4615605.5    815531.21    5431136.7      1620931 
   37700        9.425    15603.688     17677898    4714478.5    858510.41      5572989    1610478.2 
   37800         9.45    16110.773     18042038    4825322.2    886410.05    5711732.3    1600025.4 
   37900        9.475    16336.056     18422711    4945300.3    898805.08    5844105.4    1589572.7 
   38000          9.5    16383.826     18800534    5071963.5    901433.35    5973396.8    1579119.9 
   38100        9.525    16330.364     19181069    5199639.6     898491.9    6098131.5    1568667.1 
   38200         9.55    16281.684     19567419    5327152.3    895813.51    6222965.8    1558214.4 
   38300        9.575    16437.626     19951802    5444297.7    904393.41    6348691.1    1547761.6 
   38400          9.6    16736.526     20328007    5552494.9    920838.83    6473333.7    1537308.9 
   38500        9.625    17066.907     20719751    5657148.4    939016.28    6596164.7    1526856.1 
   38600         9.65    17264.982     21117843    5770872.7    949914.33    6720787.1    1516403.3 
   38700        9.675     17328.57     21531271    5901044.7     953412.9    6854457.6    1505950.6 
   38800          9.7     17398.75     21980669    6047022.4     957274.2    7004296.6    1495497.8 
   38900        9.725    17490.467     22458843    6201653.4    962320.43    7163973.8      1485045 
   39000         9.75    17436.976     22937313    6361228.7    959377.36      7320606    1474592.3 
   39100        9.775    17359.617     23418966    6519677.9    955121.07      7474799    1464139.5 
   39200          9.8     17357.39     23904244    6672960.7    954998.55    7627959.3    1453686.7 
   39300        9.825    17490.716     24381834    6817586.9    962334.13    7779921.1      1443234 
   39400         9.85    17656.785     24873512      6960461    971471.18    7931932.2    1432781.2 
   39500        9.875    17748.658     25380996      7109399       976526      8085925    1422328.5 
   39600          9.9    17539.607     25894564    7272100.2    965024.09    8237124.3    1411875.7 
   39700        9.925    16966.379     26411507    7447492.6    933485.25    8380977.9    1401422.9 
   39800         9.95    16263.965     26947470    7624295.3    894838.63      8519134    1390970.2 
   39900        9.975    15544.551     27484760      7799725    855256.67    8654981.6    1380517.4 
   40000           10    15054.646     28024960    7962836.7    828302.27    8791138.9    1370064.6 
   40100       10.025    14865.263     28564231    8116686.1    817882.44    8934568.6    1359611.9 
   40200        10.05     14820.98     29132570    8279117.9       815446    9094563.9    1349159.1 
   40300       10.075    15024.315     29753299    8459603.6    826633.43      9286237    1338706.3 
   40400         10.1    15451.405     30424969    8665780.8    850131.83    9515912.6    1328253.6 
   40500       10.125    16028.925     31096825    8874784.5    881906.78    9756691.2    1317800.8 
   40600        10.15    16431.461     31768100    9090382.2    904054.22    9994436.4    1307348.1 
   40700       10.175    17045.762     32469747    9300597.7    937852.89     10238451    1296895.3 
   40800         10.2    17890.291     33202219    9500379.2    984318.61     10484698    1286442.5 
   40900       10.225    18866.887     33957481    9703291.3    1038050.7     10741342    1275989.8 
   41000        10.25     19795.93     34693426    9913263.5    1089166.3     11002430      1265537 
   41100       10.275    20191.503     35432274     10141336    1110930.6     11252267    1255084.2 
   41200         10.3    20311.982     36207538     10377408    1117559.3     11494968    1244631.5 
   41300       10.325    20401.896     37014748     10609729    1122506.4     11732236    1234178.7 
   41400        10.35    20619.731     37806537     10835882    1134491.6     11970374    1223725.9 
   41500       10.375    21098.273     38566273     11051685    1160820.8     12212506    1213273.2 
   41600         10.4    21402.261     39384888     11281558    1177546.2     12459104    1202820.4 
   41700       10.425    21433.714     40276480     11538812    1179276.7     12718089    1192367.7 
   41800        10.45    21562.443     41184343     11813391    1186359.3     12999751    1181914.9 
   41900       10.475     21616.76     42065653     12094653    1189347.8     13284001    1171462.1 
   42000         10.5    21668.864     42971777     12371463    1192214.6     13563677    1161009.4 
   42100       10.525    21805.809     43940395     12638793    1199749.3     13838542    1150556.6 
   42200        10.55    21828.518     44885916     12911714    1200998.7     14112713    1140103.8 
   42300       10.575    21580.395     45839113     13201349    1187347.1     14388696    1129651.1 
   42400         10.6    20960.742     46828560     13504777      1153254     14658031    1119198.3 
   42500       10.625    20161.685     47849242     13810291      1109290     14919581    1108745.5 
   42600        10.65    19648.826     48848963     14104012    1081072.7     15185084    1098292.8 
   42700       10.675    19569.949     49884224     14393696    1076732.9     15470429      1087840 
   42800         10.7    19896.729     51019846     14706644    1094712.3     15801356    1077387.3 
   42900       10.725    20345.605     52148219     15049725    1119409.3     16169135    1066934.5 
   43000        10.75    20878.957     53310094     15402590    1148754.2     16551345    1056481.7 
   43100       10.775     21519.27     54490990     15755319      1183984     16939303      1046029 
   43200         10.8    22675.584     55702173     16100277      1247604     17347881    1035576.2 
   43300       10.825    23853.804     56950489     16452184    1312429.4     17764614    1025123.4 
   43400        10.85    24606.395     58210018     16820234    1353836.7     18174071    1014670.7 
   43500       10.875    24873.395     59452802     17200247      1368527     18568774    1004217.9 
   43600         10.9    25035.422     60728983     17582344    1377441.6     18959786    993765.15 
   43700       10.925    25483.235     62045967     17952871    1402080.2     19354951    983312.38 
   43800        10.95    26037.131     63409630     18331909    1432555.4     19764464    972859.62 
   43900       10.975    26271.538     64808354     18745581    1445452.4     20191033    962406.86 
   44000           11     26547.47     66299673     19172515    1460634.1     20633149    951954.09 
   44100       11.025    26653.713     67809010     19611302    1466479.6     21077781    941501.33 
   44200        11.05    26846.525     69357230     20040762      1477088     21517850    931048.56 
   44300       11.075    26810.681     70943869     20481130    1475115.9     21956246     920595.8 
   44400         11.1    26380.108     72564145     20940474    1451425.9     22391900    910143.04 
   44500       11.125    25772.748     74226681     21405724    1418009.1     22823733    899690.27 
   44600        11.15    25373.789     75941614     21867778    1396058.5     23263836    889237.51 
   44700       11.175     25524.12     77745472     22338387    1404329.7     23742717    878784.75 
   44800         11.2    26077.858     79674910     22846695    1434796.2     24281491    868331.98 
   44900       11.225    27043.175     81732632     23372939    1487907.7     24860846    857879.22 
   45000        11.25    28281.314     83866754     23898996    1556029.7     25455026    847426.46 
   45100       11.275    29699.914     86047050     24430283    1634080.7     26064364    836973.69 
   45200         11.3    30528.038     88298099     24987069    1679643.8     26666713    826520.93 
   45300       11.325    31093.684     90593413     25552069    1710765.5     27262835    816068.16 
   45400        11.35    31817.598     92978568     26113714      1750595     27864309     805615.4 
   45500       11.375    32480.526     95443048     26699347    1787069.1     28486416    795162.64 
   45600         11.4    32792.778     98043802     27324305    1804249.1     29128554    784709.87 
   45700       11.425    33118.468 1.0074042e+08     27963176    1822168.5     29785344    774257.11 
   45800        11.45    33257.381 1.0348975e+08     28606566    1829811.4     30436378    763804.35 
   45900       11.475    33043.191 1.0636257e+08     29271076    1818026.8     31089103    753351.58 
   46000         11.5    32458.306 1.093244e+08     29954177    1785846.6     31740024    742898.82 
   46100       11.525    32342.328 1.1239397e+08     30635690    1779465.5     32415156    732446.06 
   46200        11.55    32928.675 1.1568217e+08     31355716    1811726.1     33167442    721993.29 
   46300       11.575     34069.61 1.1922081e+08     32114487    1874500.1     33988987    711540.53 
   46400         11.6    35536.734 1.2293213e+08     32881568    1955220.8     34836788    701087.76 
   46500       11.625    36984.102 1.2675892e+08     33667383    2034854.6     35702238       690635 
   46600        11.65    37817.046 1.3072619e+08     34483544    2080682.9     36564227    680182.24 
   46700       11.675    38711.241 1.3486636e+08     35307399    2129881.2     37437280    669729.47 
   46800         11.7    39319.021 1.3920368e+08     36176806    2163321.1     38340128    659276.71 
   46900       11.725    39763.707 1.4377669e+08     37081879    2187787.6     39269667    648823.95 
   47000        11.75    39920.356 1.4850613e+08     38006951    2196406.4     40203358    638371.18 
   47100       11.775    39476.467 1.5340804e+08     38960889    2171983.8     41132873    627918.42 
   47200         11.8    39324.441 1.5858574e+08     39936748    2163619.3     42100367    617465.66 
   47300       11.825    39999.388 1.6411514e+08     40953530    2200754.7     43154285    607012.89 
   47400        11.85    41634.776 1.7009021e+08     42020573    2290733.3     44311306    596560.13 
   47500       11.875    43324.322 1.7637105e+08     43116716    2383691.7     45500407    586107.36 
   47600         11.9    44735.208 1.8294329e+08     44245469    2461318.2     46706787     575654.6 
   47700       11.925    45879.276 1.8978455e+08     45408000    2524264.4     47932264    565201.84 
   47800        11.95      46453.5 1.9708066e+08     46640068    2555858.1     49195926    554749.07 
   47900       11.975    46939.634 2.0474765e+08     47908046    2582605.1     50490651    544296.31 
   48000           12    46648.478 2.1276305e+08     49227526    2566585.8     51794112    533843.55 
   48100       12.025    46885.066 2.2128817e+08     50586811    2579602.7     53166414    523390.78 
   48200        12.05    48300.161 2.3052688e+08     52020779    2657460.8     54678240    512938.02 
   48300       12.075    50607.458 2.4045406e+08     53505877    2784407.7     56290285    502485.25 
   48400         12.1    52276.948 2.5085538e+08     55049333    2876262.5     57925596    492032.49 
   48500       12.125    53547.372 2.6195324e+08     56661571    2946160.9     59607732    481579.73 
   48600        12.15    54303.416 2.737278e+08     58358026    2987758.2     61345784    471126.96 
   48700       12.175    54384.285 2.8618644e+08     60125078    2992207.6     63117286     460674.2 
   48800         12.2    55215.266 2.9958627e+08     61957055    3037927.9     64994983    450221.44 
   48900       12.225    57251.339 3.1417308e+08     63902690    3149952.1     67052642    439768.67 
   49000        12.25    59746.574 3.2996548e+08     65930614    3287239.2     69217853    429315.91 
   49100       12.275    61617.123 3.4670523e+08     68051945    3390156.2     71442101    418863.15 
   49200         12.3    62506.912 3.6472188e+08     70301989    3439112.1     73741102    408410.38 
   49300       12.325    63013.425 3.8399432e+08     72653890    3466980.4     76120871    397957.62 
   49400        12.35    64657.233 4.0503621e+08     75148078    3557422.2     78705500    387504.85 
   49500       12.375     67934.55 4.2816847e+08     77770650    3737739.3     81508389    377052.09 
   49600         12.4    69969.597 4.5302773e+08     80552029    3849706.9     84401736    366599.33 
   49700       12.425    71104.528 4.7996735e+08     83496875    3912150.5     87409025    356146.56 
   49800        12.45    72431.208 5.0941962e+08     86616438    3985144.1     90601582     345693.8 
   49900       12.475    75621.766 5.4197447e+08     89933077    4160687.7     94093764    335241.04 
   50000         12.5    78690.209 5.7766227e+08     93456427    4329512.5     97785939    324788.27 
Loop time of 673.77 on 24 procs for 50000 steps with 425652 atoms

Performance: 1.603 ns/day, 14.973 hours/ns, 74.209 timesteps/s
99.5% CPU use with 24 MPI tasks x 1 OpenMP threads

MPI task timing breakdown:
Section |  min time  |  avg time  |  max time  |%varavg| %total
---------------------------------------------------------------
Pair    | 336.25     | 361.42     | 373.67     |  48.5 | 53.64
Neigh   | 0.24455    | 0.26864    | 0.28852    |   2.0 |  0.04
Comm    | 72.664     | 74.55      | 78.121     |  16.6 | 11.06
Output  | 15.185     | 15.187     | 15.216     |   0.2 |  2.25
Modify  | 185.68     | 198.32     | 220.28     |  60.7 | 29.43
Other   |            | 24.02      |            |       |  3.56

Nlocal:        17735.5 ave       17939 max       17632 min
Histogram: 6 2 5 4 1 2 1 1 1 1
Nghost:        112617.0 ave      112885 max      112266 min
Histogram: 1 1 1 3 3 4 4 3 1 3
Neighs:         0.00000 ave           0 max           0 min
Histogram: 24 0 0 0 0 0 0 0 0 0

Total # of neighbors = 0
Ave neighs/atom = 0.0000000
Neighbor list builds = 1194
Dangerous builds = 0


---------------------------------------------------------------------
      Device Time Info (average): 
---------------------------------------------------------------------
Data Transfer:   26.9525 s.
Neighbor copy:   0.0643 s.
Neighbor build:  24.9905 s.
Force calc:      220.8673 s.
Device Overhead: 68.1433 s.
Average split:   1.0000.
Lanes / atom:    4.
Vector width:    32.
Max Mem / Proc:  403.87 MB.
CPU Neighbor:    1.4368 s.
CPU Cast/Pack:   26.4684 s.
CPU Driver_Time: 1.0162 s.
CPU Idle_Time:   113.6699 s.
---------------------------------------------------------------------

Total wall time: 0:11:24
