LAMMPS (29 Sep 2021)
  using 1 OpenMP thread(s) per MPI task
Reading restart file ...
  restart file = 29 Sep 2021, LAMMPS = 29 Sep 2021
  restoring atom style atomic from restart
  orthogonal box = (-0.58121454 -0.57667329 0.0000000) to (101.79860 101.79406 615.70000)
  2 by 1 by 12 MPI processor grid
  pair style eam/alloy/gpu stores no restart info
  496594 atoms
  read_restart CPU = 0.046 seconds
Resetting global fix info from restart file:
  fix style: npt/gpu, fix ID: 2

CITE-CITE-CITE-CITE-CITE-CITE-CITE-CITE-CITE-CITE-CITE-CITE-CITE

Your simulation uses code contributions which should be cited:
- GPU package (short-range, long-range and three-body potentials):
The log file lists these citations in BibTeX format.

CITE-CITE-CITE-CITE-CITE-CITE-CITE-CITE-CITE-CITE-CITE-CITE-CITE


--------------------------------------------------------------------------
- Using acceleration for eam/alloy:
-  with 12 proc(s) per device.
-  Horizontal vector operations: ENABLED
-  Shared memory system: No
--------------------------------------------------------------------------
Device 0: Tesla V100-SXM2-32GB, 80 CUs, 28/32 GB, 1.5 GHZ (Mixed Precision)
Device 1: Tesla V100-SXM2-32GB, 80 CUs, 1.5 GHZ (Mixed Precision)
--------------------------------------------------------------------------

Initializing Device and compiling on process 0...Done.
Initializing Devices 0-1 on core 0...Done.
Initializing Devices 0-1 on core 1...Done.
Initializing Devices 0-1 on core 2...Done.
Initializing Devices 0-1 on core 3...Done.
Initializing Devices 0-1 on core 4...Done.
Initializing Devices 0-1 on core 5...Done.
Initializing Devices 0-1 on core 6...Done.
Initializing Devices 0-1 on core 7...Done.
Initializing Devices 0-1 on core 8...Done.
Initializing Devices 0-1 on core 9...Done.
Initializing Devices 0-1 on core 10...Done.
Initializing Devices 0-1 on core 11...Done.

All restart file global fix info was re-assigned
Unused restart file peratom fix info:
  fix style: STORE, fix ID: spatialbins_COMPUTE_STORE
Setting up Verlet run ...
  Unit style    : metal
  Current step  : 11000183
  Time step     : 0.00025
Per MPI rank memory allocation (min/avg/max) = 6.509 | 9.706 | 10.12 Mbytes
Step Time Temp PotEng E_pair TotEng Press Volume Lx Ly Lz CPULeft 
11000183            0    299.81751   -2062716.3   -2062716.3   -2043471.1   -88.508054    6452964.9    102.37982    102.37073        615.7            0 
11010000      2.45425    299.99257   -2062708.5   -2062708.5     -2043452   -16.109026    6452785.3    102.37642    102.37128        615.7    9141.6373 
11020000      4.95425    299.79675   -2062709.2   -2062709.2   -2043465.3    97.499301    6452877.2     102.3816    102.36755        615.7    9083.8112 
11030000      7.45425    300.29544   -2062715.9   -2062715.9   -2043440.1    37.100809    6453526.5    102.38524    102.37422        615.7    9003.2004 
11040000      9.95425    300.63963   -2062744.7   -2062744.7   -2043446.7    103.07001    6453261.7    102.37975     102.3755        615.7     8914.615 
11050000     12.45425    299.55141   -2062728.9   -2062728.9   -2043500.8   -36.351859    6454446.8     102.3917    102.38236        615.7    8825.7503 
11060000     14.95425    299.40322   -2062687.7   -2062687.7   -2043469.1   -19.039628    6454404.3    102.39462    102.37876        615.7    8734.5179 
11070000     17.45425    300.53252   -2062743.9   -2062743.9   -2043452.8    85.867665    6453801.7    102.39165    102.37217        615.7    8643.7147 
11080000     19.95425    299.81259   -2062709.5   -2062709.5   -2043464.6    121.90029    6453430.6    102.38887    102.36906        615.7    8553.5858 
11090000     22.45425    300.03587   -2062731.1   -2062731.1   -2043471.9    76.313047    6453322.3    102.38467    102.37155        615.7     8461.563 
11100000     24.95425    300.35675   -2062711.6   -2062711.6   -2043431.8    36.099265    6452897.3    102.37809    102.37138        615.7     8369.429 
11110000     27.45425    299.85113   -2062715.6   -2062715.6   -2043468.2   -29.500565    6452825.5    102.38374    102.36459        615.7    8276.7553 
11120000     29.95425    300.53887   -2062730.6   -2062730.6   -2043439.1   -43.595519    6452716.9    102.38186    102.36475        615.7     8184.472 
11130000     32.45425    299.84377     -2062708     -2062708   -2043461.1   -71.613349    6453096.5    102.38124    102.37139        615.7    8092.0707 
11140000     34.95425     299.3474   -2062668.4   -2062668.4   -2043453.4    27.751136    6452626.3    102.38558     102.3596        615.7    7999.1618 
11150000     37.45425    300.24619     -2062708     -2062708   -2043435.3    2.5321832    6452565.9    102.37746    102.36676        615.7    7906.2866 
11160000     39.95425    300.22224   -2062719.6   -2062719.6   -2043448.5   0.57757881    6453017.6    102.38671    102.36467        615.7     7813.467 
11170000     42.45425    299.81651   -2062692.6   -2062692.6   -2043447.5    51.543817      6453285    102.39068    102.36495        615.7    7720.6092 
11180000     44.95425    299.91809   -2062759.4   -2062759.4   -2043507.7    77.311064    6453080.7      102.379    102.37339        615.7    7627.5217 
11190000     47.45425    300.07242   -2062717.4   -2062717.4   -2043455.8    144.44487    6453069.9    102.38074    102.37147        615.7    7532.0483 
11200000     49.95425    299.60833   -2062719.9   -2062719.9   -2043488.1    80.530594    6453487.1    102.38882    102.37001        615.7    7435.9772 
11210000     52.45425    299.81797   -2062739.2   -2062739.2     -2043494     75.05683    6453359.2    102.38597    102.37083        615.7    7340.2652 
11220000     54.95425     299.9869   -2062731.5   -2062731.5   -2043475.5    22.824438      6453099    102.38142    102.37125        615.7    7244.8882 
11230000     57.45425    300.62948     -2062722     -2062722   -2043424.7   -11.583978    6453264.9    102.38721     102.3681        615.7    7149.7577 
11240000     59.95425    300.14273   -2062738.6   -2062738.6   -2043472.5   -92.814003    6453573.3    102.38604    102.37416        615.7    7054.7771 
11250000     62.45425    300.45699   -2062734.3   -2062734.3     -2043448   -72.596259      6453297    102.38172    102.37409        615.7    6960.1822 
11260000     64.95425    299.99371     -2062743     -2062743   -2043486.5    13.983011    6452938.8    102.38146    102.36867        615.7    6865.6736 
11270000     67.45425    300.25817   -2062710.4   -2062710.4   -2043436.9   -42.761213    6453115.3    102.37821    102.37472        615.7     6771.425 
11280000     69.95425    300.54074   -2062718.8   -2062718.8   -2043427.2    -161.7191    6453715.4    102.38854    102.37392        615.7    6677.3043 
11290000     72.45425    300.04928   -2062723.7   -2062723.7   -2043463.7    -55.78693    6453832.6    102.38563    102.37868        615.7    6583.2047 
11300000     74.95425    299.95748   -2062718.9   -2062718.9   -2043464.7   -7.7239198    6453419.2    102.38672    102.37104        615.7    6489.3728 
11310000     77.45425    299.78465   -2062720.7   -2062720.7   -2043477.6    16.569839    6452758.9    102.37468    102.37259        615.7    6395.6983 
11320000     79.95425    300.00228   -2062730.5   -2062730.5   -2043473.4    7.7687663    6453233.7      102.378    102.37682        615.7    6302.0488 
11330000     82.45425    299.60708     -2062707     -2062707   -2043475.3   -5.0714753      6453831    102.38776    102.37653        615.7    6208.5196 
11340000     84.95425    300.39548   -2062718.8   -2062718.8   -2043436.5    46.888888    6453023.7    102.37825    102.37323        615.7     6115.005 
11350000     87.45425    300.11723     -2062742     -2062742   -2043477.6    26.880951    6452752.8    102.37589    102.37129        615.7    6021.5945 
11360000     89.95425    299.88789     -2062687     -2062687   -2043437.3    33.467162    6453101.6    102.37968    102.37304        615.7     5928.223 
11370000     92.45425    300.22259   -2062697.3   -2062697.3   -2043426.1    15.248365    6453151.4     102.3818    102.37171        615.7    5834.8875 
11380000     94.95425    300.53125   -2062748.5   -2062748.5   -2043457.5   -72.743538    6453430.2    102.38415    102.37378        615.7    5741.7499 
11390000     97.45425    300.01274   -2062714.8   -2062714.8   -2043457.1    43.421439    6452701.7     102.3857    102.36067        615.7    5648.5463 
11400000     99.95425     299.9504   -2062717.1   -2062717.1   -2043463.3    19.739144    6452949.5    102.38273    102.36757        615.7    5555.2362 
11410000    102.45425    300.10558   -2062702.7   -2062702.7     -2043439   -81.623002    6453494.3    102.38284    102.37611        615.7     5462.061 
11420000    104.95425    299.82759   -2062718.1   -2062718.1   -2043472.3   -80.746973      6453671    102.38411    102.37764        615.7    5368.9082 
11430000    107.45425    300.29978   -2062720.2   -2062720.2   -2043444.1   -12.935939    6453836.4    102.38471    102.37966        615.7    5275.9175 
11440000    109.95425    300.16013   -2062724.5   -2062724.5   -2043457.3     55.65774      6453804    102.39027    102.37359        615.7    5182.8746 
11450000    112.45425    299.79842   -2062708.7   -2062708.7   -2043464.8    15.811601    6454729.5    102.39758    102.38097        615.7    5090.0002 
11460000    114.95425    300.42663   -2062733.7   -2062733.7   -2043449.4   -46.311381    6455035.4    102.39562    102.38778        615.7    4997.0161 
11470000    117.45425    300.13057     -2062712     -2062712   -2043446.7    54.891197    6454396.4    102.39167    102.38159        615.7    4904.0639 
11480000    119.95425    299.72239   -2062707.6   -2062707.6   -2043468.5     112.2512    6453741.5    102.38585    102.37702        615.7    4811.2268 
11490000    122.45425    300.40202   -2062721.7   -2062721.7     -2043439    134.30359    6453219.5     102.3858    102.36879        615.7    4718.4175 
11500000    124.95425    299.94756     -2062723     -2062723   -2043469.5   -136.31466    6453442.3    102.39019    102.36793        615.7    4625.5641 
11510000    127.45425    299.93981   -2062719.1   -2062719.1     -2043466   -63.444044      6452801    102.37935     102.3686        615.7     4532.822 
11520000    129.95425    300.17602     -2062758     -2062758   -2043489.8    22.782383    6451909.5    102.37498    102.35882        615.7    4440.0446 
11530000    132.45425    300.01731   -2062689.1   -2062689.1   -2043431.1    -69.34599    6452418.7     102.3828    102.35908        615.7    4347.3309 
11540000    134.95425    300.30806   -2062744.7   -2062744.7     -2043468   -4.8767775    6452604.2    102.37839    102.36644        615.7    4254.6194 
11550000    137.45425    299.84213   -2062708.8   -2062708.8     -2043462    2.9909195    6452908.8     102.3843    102.36535        615.7    4161.8847 
11560000    139.95425    300.11158   -2062697.1   -2062697.1     -2043433   -31.403603    6453214.7    102.38507    102.36944        615.7    4068.6799 
11570000    142.45425    300.24433   -2062712.6   -2062712.6     -2043440    14.426558    6453758.5    102.38305    102.38009        615.7      3975.33 
11580000    144.95425     299.7137   -2062706.6   -2062706.6   -2043468.1    88.409623      6453700    102.38458    102.37763        615.7    3882.0778 
11590000    147.45425    299.90246   -2062718.1   -2062718.1   -2043467.5    110.14296      6453559    102.39012    102.36985        615.7    3788.9294 
11600000    149.95425    300.12946     -2062714     -2062714   -2043448.7    12.247915    6454635.7     102.3999    102.37715        615.7    3695.8141 
11610000    152.45425    300.33804   -2062710.2   -2062710.2   -2043431.6   -8.8083795    6454844.6    102.38934    102.39102        615.7    3602.8202 
11620000    154.95425     299.6958   -2062706.9   -2062706.9   -2043469.5   -42.682484    6454122.4    102.39079    102.37812        615.7    3509.8508 
11630000    157.45425    300.21689   -2062704.5   -2062704.5   -2043433.6   -64.624889      6454030    102.38959    102.37786        615.7    3416.8505 
11640000    159.95425    299.92173   -2062692.1   -2062692.1   -2043440.3    9.0943151    6453690.5    102.39503    102.36703        615.7    3323.9055 
11650000    162.45425    299.60213   -2062692.4   -2062692.4     -2043461    14.488223    6452826.6    102.38001    102.36834        615.7    3231.0653 
11660000    164.95425      299.207   -2062692.5   -2062692.5   -2043486.5    -41.97008    6452819.4    102.38061    102.36763        615.7    3138.2425 
11670000    167.45425    300.10115   -2062729.3   -2062729.3   -2043465.9    18.109832    6452468.5    102.37704    102.36564        615.7    3045.4896 
11680000    169.95425    300.04593   -2062721.7   -2062721.7   -2043461.8    28.147058    6452219.5    102.38132     102.3574        615.7     2952.747 
11690000    172.45425    299.74685   -2062720.6   -2062720.6     -2043480    3.5089524    6452207.5    102.37513     102.3634        615.7    2860.0572 
11700000    174.95425    300.55073   -2062742.3   -2062742.3     -2043450   -73.231308    6453114.5    102.38072     102.3722        615.7    2768.2549 
11710000    177.45425    299.73327   -2062712.3   -2062712.3   -2043472.5    5.8004221    6453052.6    102.38018    102.37176        615.7    2676.6736 
11720000    179.95425    299.86799   -2062701.8   -2062701.8   -2043453.4    25.057307    6453465.7    102.38381    102.37468        615.7    2585.0412 
11730000    182.45425    299.79123   -2062711.7   -2062711.7   -2043468.2   -50.987106      6453800    102.38852    102.37528        615.7    2493.3539 
11740000    184.95425    299.90547   -2062698.1   -2062698.1   -2043447.3   -45.922401    6454384.9    102.39506    102.37802        615.7    2401.6204 
11750000    187.45425    300.21846   -2062713.5   -2062713.5   -2043442.5   -15.932936      6454596    102.40291    102.37351        615.7    2309.8462 
11760000    189.95425    300.19553   -2062726.4   -2062726.4   -2043456.9    107.01612    6453779.2    102.38974    102.37372        615.7     2218.019 
11770000    192.45425    299.87634   -2062732.8   -2062732.8   -2043483.8    30.244695    6453833.7    102.38219    102.38214        615.7    2126.1148 
11780000    194.95425    299.81552   -2062681.5   -2062681.5   -2043436.5    -7.271521      6454202    102.39025    102.37992        615.7    2034.1493 
11790000    197.45425    300.24642   -2062694.7   -2062694.7     -2043422   -2.3974681    6453335.3    102.38872     102.3677        615.7     1942.158 
11800000    199.95425    299.96974   -2062717.9   -2062717.9   -2043462.9    -36.10384    6452692.1    102.37726    102.36896        615.7    1850.1154 
11810000    202.45425    300.08366   -2062730.1   -2062730.1   -2043467.8    -45.18994    6452561.3    102.36991    102.37424        615.7    1758.0104 
11820000    204.95425    299.41091   -2062694.7   -2062694.7   -2043475.6   -132.25447    6453042.4    102.37455    102.37722        615.7    1665.8715 
11830000    207.45425    299.65098   -2062713.3   -2062713.3   -2043478.8    -153.9116    6453118.3    102.37829    102.37469        615.7    1573.7092 
11840000    209.95425    300.05679   -2062691.8   -2062691.8   -2043431.3   -58.622838    6452986.3     102.3848    102.36609        615.7    1481.5005 
11850000    212.45425    299.88485   -2062733.5   -2062733.5   -2043483.9    5.5652603    6453262.5    102.38007     102.3752        615.7    1389.2568 
11860000    214.95425    300.28319   -2062710.7   -2062710.7   -2043435.6   -61.527067    6453573.6    102.38537    102.37484        615.7    1296.9621 
11870000    217.45425    300.41976     -2062729     -2062729   -2043445.2    53.024406    6453381.3    102.38851    102.36864        615.7    1204.6326 
11880000    219.95425      300.216   -2062720.5   -2062720.5   -2043449.8    28.610052    6453377.5    102.37929     102.3778        615.7     1112.288 
11890000    222.45425    300.11562   -2062731.9   -2062731.9   -2043467.6    96.525385    6453329.1    102.38321    102.37312        615.7    1019.9035 
11900000    224.95425    299.49333     -2062708     -2062708   -2043483.7    84.151423    6453495.5     102.3833    102.37566        615.7    927.47808 
11910000    227.45425    300.23302   -2062719.3   -2062719.3   -2043447.5    70.445662    6453772.5    102.38427    102.37909        615.7    835.02528 
11920000    229.95425    300.29049   -2062719.3   -2062719.3   -2043443.7    2.0507318    6453561.6    102.38298    102.37703        615.7     742.5443 
11930000    232.45425    300.22456   -2062724.3   -2062724.3     -2043453   -68.587239    6453375.1    102.37943    102.37763        615.7    650.03064 
11940000    234.95425    300.35487   -2062740.5   -2062740.5   -2043460.8   -147.39599    6453813.2    102.38915    102.37486        615.7     557.4858 
11950000    237.45425    299.77889   -2062694.8   -2062694.8   -2043452.1   -55.804662    6453609.3    102.39027     102.3705        615.7    464.91931 
11960000    239.95425    300.29983   -2062734.9   -2062734.9   -2043458.8   -61.303192    6453275.8    102.38858    102.36691        615.7      372.325 
11970000    242.45425     299.7108   -2062711.2   -2062711.2   -2043472.9   -32.288202    6453302.8    102.37881     102.3771        615.7    279.70277 
11980000    244.95425    300.06611     -2062740     -2062740   -2043478.8    44.251062    6453747.9    102.39106    102.37191        615.7    187.05944 
11990000    247.45425    299.77267   -2062703.3   -2062703.3     -2043461   -30.547455    6454096.5    102.38249    102.38601        615.7    94.390284 
12000000    249.95425    300.04758   -2062711.6   -2062711.6   -2043451.7    27.614102    6454066.6    102.39389    102.37414        615.7    1.6965165 
12000183          250    299.39668     -2062685     -2062685   -2043466.8    16.795036    6454118.8    102.38562    102.38323        615.7            0 
Loop time of 9270.61 on 24 procs for 1000000 steps with 496594 atoms

Performance: 2.330 ns/day, 10.301 hours/ns, 107.868 timesteps/s
99.9% CPU use with 24 MPI tasks x 1 OpenMP threads

MPI task timing breakdown:
Section |  min time  |  avg time  |  max time  |%varavg| %total
---------------------------------------------------------------
Pair    | 4059.5     | 4626.4     | 5108.9     | 480.0 | 49.90
Neigh   | 0.169      | 0.52487    | 0.6575     |  16.7 |  0.01
Comm    | 722.57     | 942.76     | 1056.2     | 293.9 | 10.17
Output  | 4.3588     | 4.3618     | 4.3715     |   0.1 |  0.05
Modify  | 2790.8     | 3283.6     | 3840.1     | 522.1 | 35.42
Other   |            | 412.9      |            |       |  4.45

Nlocal:        20691.4 ave       24499 max        6809 min
Histogram: 2 0 0 0 0 0 0 8 6 8
Nghost:        21163.2 ave       22762 max       15230 min
Histogram: 2 0 0 0 1 1 0 2 7 11
Neighs:         0.00000 ave           0 max           0 min
Histogram: 24 0 0 0 0 0 0 0 0 0

Total # of neighbors = 0
Ave neighs/atom = 0.0000000
Neighbor list builds = 2553
Dangerous builds = 0
System init for write_restart ...


---------------------------------------------------------------------
      Device Time Info (average): 
---------------------------------------------------------------------
Data Transfer:   821.8833 s.
Neighbor copy:   0.1242 s.
Neighbor build:  6.9923 s.
Force calc:      2451.9518 s.
Device Overhead: 1240.7036 s.
Average split:   1.0000.
Lanes / atom:    4.
Vector width:    32.
Max Mem / Proc:  41.10 MB.
CPU Neighbor:    1.3433 s.
CPU Cast/Pack:   571.8120 s.
CPU Driver_Time: 18.5599 s.
CPU Idle_Time:   1482.6971 s.
---------------------------------------------------------------------


--------------------------------------------------------------------------
- Using acceleration for eam/alloy:
-  with 12 proc(s) per device.
-  Horizontal vector operations: ENABLED
-  Shared memory system: No
--------------------------------------------------------------------------
Device 0: Tesla V100-SXM2-32GB, 80 CUs, 28/32 GB, 1.5 GHZ (Mixed Precision)
Device 1: Tesla V100-SXM2-32GB, 80 CUs, 1.5 GHZ (Mixed Precision)
--------------------------------------------------------------------------

Initializing Device and compiling on process 0...Done.
Initializing Devices 0-1 on core 0...Done.
Initializing Devices 0-1 on core 1...Done.
Initializing Devices 0-1 on core 2...Done.
Initializing Devices 0-1 on core 3...Done.
Initializing Devices 0-1 on core 4...Done.
Initializing Devices 0-1 on core 5...Done.
Initializing Devices 0-1 on core 6...Done.
Initializing Devices 0-1 on core 7...Done.
Initializing Devices 0-1 on core 8...Done.
Initializing Devices 0-1 on core 9...Done.
Initializing Devices 0-1 on core 10...Done.
Initializing Devices 0-1 on core 11...Done.

System init for write_data ...

--------------------------------------------------------------------------
- Using acceleration for eam/alloy:
-  with 12 proc(s) per device.
-  Horizontal vector operations: ENABLED
-  Shared memory system: No
--------------------------------------------------------------------------
Device 0: Tesla V100-SXM2-32GB, 80 CUs, 28/32 GB, 1.5 GHZ (Mixed Precision)
Device 1: Tesla V100-SXM2-32GB, 80 CUs, 1.5 GHZ (Mixed Precision)
--------------------------------------------------------------------------

Initializing Device and compiling on process 0...Done.
Initializing Devices 0-1 on core 0...Done.
Initializing Devices 0-1 on core 1...Done.
Initializing Devices 0-1 on core 2...Done.
Initializing Devices 0-1 on core 3...Done.
Initializing Devices 0-1 on core 4...Done.
Initializing Devices 0-1 on core 5...Done.
Initializing Devices 0-1 on core 6...Done.
Initializing Devices 0-1 on core 7...Done.
Initializing Devices 0-1 on core 8...Done.
Initializing Devices 0-1 on core 9...Done.
Initializing Devices 0-1 on core 10...Done.
Initializing Devices 0-1 on core 11...Done.

Total wall time: 2:34:36
