LAMMPS (29 Sep 2021)
  using 1 OpenMP thread(s) per MPI task
Reading restart file ...
  restart file = 29 Sep 2021, LAMMPS = 29 Sep 2021
  restoring atom style atomic from restart
  orthogonal box = (0.53910938 0.52937543 0.0000000) to (100.70798 100.71771 665.42400)
  2 by 3 by 16 MPI processor grid
  pair style hybrid/overlay stores no restart info
  494500 atoms
  read_restart CPU = 0.052 seconds
Resetting global fix info from restart file:
  fix style: npt, fix ID: 2

CITE-CITE-CITE-CITE-CITE-CITE-CITE-CITE-CITE-CITE-CITE-CITE-CITE

Your simulation uses code contributions which should be cited:
- @article{cjiang2012
The log file lists these citations in BibTeX format.

CITE-CITE-CITE-CITE-CITE-CITE-CITE-CITE-CITE-CITE-CITE-CITE-CITE

All restart file global fix info was re-assigned
Unused restart file peratom fix info:
  fix style: STORE, fix ID: spatialbins_COMPUTE_STORE
Neighbor list info ...
  update every 1 steps, delay 10 steps, check yes
  max neighbors/atom: 2000, page size: 100000
  master list distance cutoff = 8.28721
  ghost atom cutoff = 8.28721
  binsize = 4.143605, bins = 25 25 161
  3 neighbor lists, perpetual/occasional/extra = 3 0 0
  (1) pair eam/alloy, perpetual, skip from (3)
      attributes: half, newton on
      pair build: skip
      stencil: none
      bin: none
  (2) pair edip/multi, perpetual
      attributes: full, newton on
      pair build: full/bin/atomonly
      stencil: full/bin/3d
      bin: standard
  (3) neighbor class addition, perpetual, half/full from (2)
      attributes: half, newton on
      pair build: halffull/newton
      stencil: none
      bin: none
Setting up Verlet run ...
  Unit style    : metal
  Current step  : 11001453
  Time step     : 0.00025
Per MPI rank memory allocation (min/avg/max) = 8.531 | 11.16 | 14.41 Mbytes
Step Time Temp PotEng E_pair TotEng Press Volume Lx Ly Lz CPULeft 
11001453            0    299.53458   -2200829.5   -2200829.5   -2181683.5   -278.26992    6678030.1    100.16887    100.18833      665.424            0 
11010000      2.13675    299.75954   -2200855.8   -2200855.8   -2181695.4     227.3389    6677211.7    100.16653    100.17839      665.424    60417.386 
11020000      4.63675    299.96311   -2200837.8   -2200837.8   -2181664.5   -283.63013    6678353.3    100.17819    100.18386      665.424    59899.328 
11030000      7.13675     300.2514   -2200835.4   -2200835.4   -2181643.6    46.202112    6677697.8    100.16465    100.18756      665.424    59341.837 
11040000      9.63675    299.83182   -2200826.1   -2200826.1   -2181661.2    383.96846    6677704.9     100.1682    100.18412      665.424    58771.979 
11050000     12.13675    299.86548   -2200821.4   -2200821.4   -2181654.2   -127.16303    6677291.9    100.16512      100.181      665.424     58184.72 
11060000     14.63675    299.35005   -2200821.2   -2200821.2     -2181687   -162.58968    6678233.3    100.17187    100.18838      665.424    57578.929 
11070000     17.13675    300.19391   -2200847.8   -2200847.8   -2181659.7    154.29042      6678402    100.17119    100.19158      665.424    56965.306 
11080000     19.63675    299.84211   -2200826.3   -2200826.3   -2181660.7   -346.38858    6678274.5    100.16714    100.19373      665.424    56343.025 
11090000     22.13675    299.88824   -2200866.1   -2200866.1   -2181697.5    43.642462    6678300.9    100.17635    100.18491      665.424    55719.701 
11100000     24.63675    299.92016   -2200823.7   -2200823.7   -2181653.1    91.363558    6678119.1    100.17327    100.18527      665.424     55095.46 
11110000     27.13675    300.00128   -2200825.2   -2200825.2   -2181649.5   -99.592816    6678510.7    100.17242    100.19199      665.424    54470.491 
11120000     29.63675    300.21712   -2200836.8   -2200836.8   -2181647.2    182.35875    6678965.9    100.18006    100.19118      665.424    53850.596 
11130000     32.13675    300.01671   -2200868.8   -2200868.8     -2181692    444.88137    6677664.5    100.16777    100.18394      665.424    53237.473 
11140000     34.63675    299.74256   -2200851.5   -2200851.5   -2181692.3    323.13906    6677361.8    100.17105    100.17612      665.424    52630.876 
11150000     37.13675    299.53898   -2200825.8   -2200825.8   -2181679.5    258.46068    6677297.1     100.1583     100.1879      665.424    52027.376 
11160000     39.63675    299.91597   -2200855.2   -2200855.2   -2181684.9    -171.4521    6677683.7     100.1689     100.1831      665.424    51424.051 
11170000     42.13675     299.5013   -2200845.9   -2200845.9   -2181702.1   -182.44785    6677713.7    100.16019    100.19226      665.424    50815.741 
11180000     44.63675    300.31136   -2200862.5   -2200862.5   -2181666.9   -198.94788    6677705.6    100.16869    100.18364      665.424    50207.559 
11190000     47.13675    299.82328   -2200861.3   -2200861.3   -2181696.9    229.29682    6678292.7    100.17494     100.1862      665.424    49595.899 
11200000     49.63675     300.1024   -2200836.9   -2200836.9   -2181654.6   -152.18486    6678690.4    100.18771    100.17939      665.424    48982.314 
11210000     52.13675    299.32711   -2200836.2   -2200836.2   -2181703.5    257.73608      6678881     100.1728    100.19716      665.424    48365.804 
11220000     54.63675     300.1641   -2200864.5   -2200864.5   -2181678.4    285.65211    6677777.1    100.17092    100.18249      665.424    47747.273 
11230000     57.13675    299.70335   -2200841.4   -2200841.4   -2181684.6   -65.821907    6678676.5    100.17572    100.19118      665.424    47131.815 
11240000     59.63675    300.04051     -2200861     -2200861   -2181682.7   -59.629795    6678036.8    100.17481    100.18248      665.424    46517.579 
11250000     62.13675    300.03981   -2200838.3   -2200838.3   -2181660.1     177.5077    6677811.8    100.17026    100.18366      665.424    45907.029 
11260000     64.63675    299.48765   -2200826.5   -2200826.5   -2181683.6    112.55253    6677136.7    100.16494    100.17886      665.424    45297.854 
11270000     67.13675    300.00043   -2200893.7   -2200893.7   -2181717.9   -205.01546    6677920.9    100.16938    100.18618      665.424    44688.708 
11280000     69.63675    300.04184     -2200857     -2200857   -2181678.6   -127.19846    6677420.8    100.16479    100.18327      665.424    44080.287 
11290000     72.13675    299.85841   -2200830.3   -2200830.3   -2181663.7   -64.953172    6678010.1    100.17325    100.18364      665.424    43471.641 
11300000     74.63675    300.14521     -2200834     -2200834     -2181649   -187.47933    6678131.3    100.17761    100.18111      665.424    42861.914 
11310000     77.13675    299.58531   -2200834.5   -2200834.5   -2181685.3   -54.092888    6678837.1    100.17871     100.1906      665.424    42249.881 
11320000     79.63675    299.85811   -2200862.8   -2200862.8   -2181696.1    358.11956    6677782.5    100.16967    100.18382      665.424    41635.789 
11330000     82.13675    300.21784   -2200841.9   -2200841.9   -2181652.2   -197.67405    6678336.8    100.17483    100.18697      665.424    41021.356 
11340000     84.63675    300.50107   -2200863.6   -2200863.6   -2181655.8   -133.16488    6678820.4     100.1766    100.19246      665.424    40408.075 
11350000     87.13675    300.22571   -2200863.8   -2200863.8   -2181673.6    188.08309    6678010.5    100.17467    100.18223      665.424    39794.792 
11360000     89.63675     300.0893   -2200860.1   -2200860.1   -2181678.7   -230.77786    6678527.7    100.17264    100.19203      665.424    39182.504 
11370000     92.13675     299.7544   -2200854.1   -2200854.1   -2181694.1    235.01069    6677629.1    100.16426    100.18692      665.424    38571.492 
11380000     94.63675    300.50026     -2200862     -2200862   -2181654.3    13.220365    6677085.8    100.16676    100.17628      665.424    37962.464 
11390000     97.13675    300.18442   -2200842.5   -2200842.5     -2181655   -76.457842    6677598.3    100.16996    100.18076      665.424    37354.327 
11400000     99.63675    299.73759   -2200854.1   -2200854.1   -2181695.1     66.61307      6678025    100.17006    100.18706      665.424    36745.617 
11410000    102.13675    300.27741     -2200851     -2200851   -2181657.5    216.89101    6677740.6    100.16639    100.18647      665.424     36136.24 
11420000    104.63675    300.32186   -2200872.4   -2200872.4   -2181676.1    -160.0318    6677951.3     100.1716    100.18442      665.424    35525.143 
11430000    107.13675    299.93641   -2200846.6   -2200846.6     -2181675     53.72798    6678580.2    100.17653    100.18892      665.424    34913.127 
11440000    109.63675    300.04293   -2200852.6   -2200852.6   -2181674.2    312.47939    6677997.6     100.1708    100.18591      665.424    34300.715 
11450000    112.13675    299.68994   -2200859.6   -2200859.6   -2181703.8     106.4651    6677899.2    100.17552    100.17972      665.424    33688.239 
11460000    114.63675    299.65204   -2200860.1   -2200860.1   -2181706.7   -325.71133    6678807.5    100.17722    100.19164      665.424    33076.122 
11470000    117.13675    299.73212     -2200843     -2200843   -2181684.4   -15.797084    6678251.9    100.17266    100.18787      665.424    32464.118 
11480000    119.63675    300.06467   -2200884.2   -2200884.2   -2181704.4    29.581506    6677930.1    100.17496    100.18074      665.424     31853.29 
11490000    122.13675    300.34023   -2200873.9   -2200873.9   -2181676.4    24.245945    6677408.2    100.16866    100.17921      665.424      31243.8 
11500000    124.63675    300.03854   -2200858.8   -2200858.8   -2181680.7    313.01133    6677449.5    100.16588    100.18261      665.424    30634.553 
11510000    127.13675    299.88688     -2200863     -2200863   -2181694.5    319.42085    6676541.5    100.15361    100.18125      665.424    30025.932 
11520000    129.63675    299.94481   -2200836.5   -2200836.5   -2181664.3   -140.45168    6677282.3    100.16868    100.17731      665.424    29416.359 
11530000    132.13675    300.60225   -2200865.5   -2200865.5   -2181651.3    61.585462    6678074.3    100.17554    100.18233      665.424    28806.076 
11540000    134.63675    299.80864   -2200876.4   -2200876.4   -2181712.9    78.309261    6678339.6    100.17318    100.18866      665.424    28195.479 
11550000    137.13675    299.82378   -2200864.7   -2200864.7   -2181700.3    384.35367    6677732.4    100.16573    100.18701      665.424    27583.932 
11560000    139.63675    299.26279   -2200844.6   -2200844.6     -2181716    137.13627    6678665.8     100.1738    100.19293      665.424    26971.883 
11570000    142.13675    299.91853   -2200852.2   -2200852.2   -2181681.7    62.366726    6678478.4    100.17808    100.18585      665.424    26359.646 
11580000    144.63675    300.11159   -2200876.8   -2200876.8     -2181694     353.2267    6678441.3    100.17173    100.19164      665.424    25747.393 
11590000    147.13675    299.58907   -2200826.1   -2200826.1   -2181676.7    395.01956      6677219    100.17085    100.17418      665.424    25135.978 
11600000    149.63675    299.96156   -2200861.8   -2200861.8   -2181688.5   -158.12515    6677433.7    100.16806    100.18019      665.424    24525.322 
11610000    152.13675    299.87566   -2200855.9   -2200855.9   -2181688.1   -143.58327    6677204.2    100.16982    100.17499      665.424    23915.141 
11620000    154.63675    299.56377   -2200850.9   -2200850.9   -2181703.1   -148.17648    6677630.5    100.16363    100.18757      665.424    23305.342 
11630000    157.13675    299.90301   -2200861.1   -2200861.1   -2181691.6    75.323613    6677375.6    100.17042    100.17696      665.424    22695.169 
11640000    159.63675    299.71197   -2200845.3   -2200845.3   -2181688.1    -84.91723    6677605.8    100.16888    100.18195      665.424    22084.994 
11650000    162.13675    300.18007   -2200846.5   -2200846.5   -2181659.3   -280.88702    6678749.1    100.18523    100.18275      665.424     21474.53 
11660000    164.63675    300.01282   -2200845.3   -2200845.3   -2181668.7    86.324237    6678395.7    100.17336    100.18933      665.424    20863.056 
11670000    167.13675    299.40596   -2200846.9   -2200846.9   -2181709.2   -14.563403    6678339.2    100.17886    100.18298      665.424    20251.292 
11680000    169.63675    300.53877   -2200885.7   -2200885.7   -2181675.6   -106.19238    6678402.9     100.1761    100.18669      665.424    19639.383 
11690000    172.13675    300.27257   -2200873.9   -2200873.9   -2181680.8    239.76412    6678712.9    100.17906    100.18839      665.424    19027.722 
11700000    174.63675     299.8163   -2200872.4   -2200872.4   -2181708.5    157.73848      6677776    100.16523    100.18816      665.424    18416.441 
11710000    177.13675    299.97048   -2200875.9   -2200875.9   -2181702.1    365.54612    6677402.5    100.16312    100.18467      665.424    17805.671 
11720000    179.63675    300.01812   -2200865.1   -2200865.1   -2181688.2   -111.66163    6677448.3    100.16643    100.18204      665.424    17195.153 
11730000    182.13675    300.17504   -2200862.4   -2200862.4   -2181675.5    -114.2638    6677519.4    100.16298    100.18655      665.424    16584.663 
11740000    184.63675    299.87757   -2200862.1   -2200862.1   -2181694.2   -260.78876    6677186.4    100.16928    100.17526      665.424    15974.306 
11750000    187.13675    299.97459   -2200879.7   -2200879.7   -2181705.7   -183.03696    6677238.4    100.17274    100.17259      665.424    15364.146 
11760000    189.63675    300.01293   -2200849.8   -2200849.8   -2181673.3   -269.36349    6678262.3     100.1763    100.18438      665.424    14753.314 
11770000    192.13675    300.74447   -2200898.9   -2200898.9   -2181675.7    10.752642    6677998.8    100.17043     100.1863      665.424    14142.229 
11780000    194.63675    299.85613   -2200851.7   -2200851.7   -2181685.2   -224.45809    6678531.1    100.17193    100.19278      665.424    13530.967 
11790000    197.13675    299.97602   -2200881.4   -2200881.4   -2181707.2    358.63861    6678101.9    100.18264    100.17563      665.424    12919.444 
11800000    199.63675    300.17918   -2200890.2   -2200890.2   -2181703.1   -45.212485    6678107.9    100.16916     100.1892      665.424    12308.066 
11810000    202.13675    300.00571     -2200890     -2200890   -2181713.9   -140.64634    6677799.4    100.17353     100.1802      665.424    11696.751 
11820000    204.63675    299.72662   -2200869.9   -2200869.9   -2181711.7    133.66708    6677612.8    100.17045    100.18049      665.424    11085.672 
11830000    207.13675    299.59623   -2200843.6   -2200843.6   -2181693.7    108.58215      6677907    100.17495     100.1804      665.424    10474.779 
11840000    209.63675    300.11371   -2200858.9   -2200858.9   -2181675.9   -115.50891    6677330.1    100.17786    100.16884      665.424    9864.1575 
11850000    212.13675    300.02931   -2200840.5   -2200840.5   -2181662.9    89.116979      6677330     100.1657      100.181      665.424    9253.8351 
11860000    214.63675    299.63644   -2200848.6   -2200848.6   -2181696.2    55.747931    6677060.3    100.16197    100.18069      665.424    8643.2889 
11870000    217.13675     299.6795   -2200827.9   -2200827.9   -2181672.7   -218.37473    6677654.1    100.16798    100.18358      665.424    8032.6002 
11880000    219.63675    300.33253   -2200891.1   -2200891.1   -2181694.2   -49.692456    6677086.5    100.16934    100.17371      665.424    7421.7307 
11890000    222.13675    300.45374   -2200893.7   -2200893.7     -2181689   -248.01093    6679201.2    100.17522    100.19955      665.424    6810.6559 
11900000    224.63675    299.67873   -2200864.4   -2200864.4   -2181709.2   -210.09313    6678042.8    100.16332    100.19407      665.424    6199.4824 
11910000    227.13675    300.04369   -2200871.5   -2200871.5     -2181693    137.76992    6678353.8    100.16658    100.19548      665.424    5588.3123 
11920000    229.63675      300.237   -2200849.4   -2200849.4   -2181658.5    138.35774    6678641.3    100.17207     100.1943      665.424    4977.1456 
11930000    232.13675    299.75032   -2200864.4   -2200864.4   -2181704.6   -17.844301    6678661.4    100.16935    100.19732      665.424    4366.0386 
11940000    234.63675     299.7631   -2200892.6   -2200892.6     -2181732   -451.20954    6678219.9    100.16969    100.19036      665.424    3754.9692 
11950000    237.13675    299.73572   -2200869.4   -2200869.4   -2181710.6   -38.346874    6677471.5    100.16979    100.17903      665.424     3144.006 
11960000    239.63675    300.31671   -2200901.9   -2200901.9     -2181706    215.16006    6677780.3    100.16756    100.18589      665.424    2533.0464 
11970000    242.13675    299.67774   -2200859.6   -2200859.6   -2181704.5    102.75682    6677730.9    100.16292     100.1898      665.424    1922.0439 
11980000    244.63675    300.50184   -2200886.6   -2200886.6   -2181678.8    120.89124    6677928.6    100.16497     100.1907      665.424    1311.0079 
11990000    247.13675    300.23233   -2200864.3   -2200864.3   -2181673.7    -169.2234    6677237.9     100.1703    100.17502      665.424    699.92186 
12000000    249.63675    300.40728   -2200876.8   -2200876.8   -2181675.1   -130.76988    6677877.2    100.16678    100.18813      665.424    88.797068 
12001453          250     299.7883   -2200887.6   -2200887.6   -2181725.4     184.5305    6677683.2    100.17159    100.18041      665.424            0 
Loop time of 61113 on 96 procs for 1000000 steps with 494500 atoms

Performance: 0.353 ns/day, 67.903 hours/ns, 16.363 timesteps/s
100.0% CPU use with 96 MPI tasks x 1 OpenMP threads

MPI task timing breakdown:
Section |  min time  |  avg time  |  max time  |%varavg| %total
---------------------------------------------------------------
Pair    | 13927      | 25781      | 59971      |8300.7 | 42.19
Neigh   | 34.329     | 58.508     | 83.994     | 206.1 |  0.10
Comm    | 488.49     | 8605.7     | 26730      |9218.7 | 14.08
Output  | 2.1382     | 2.1396     | 2.1431     |   0.1 |  0.00
Modify  | 466.93     | 26587      | 39539      |9243.1 | 43.51
Other   |            | 78.56      |            |       |  0.13

Nlocal:        5151.04 ave        6220 max        4014 min
Histogram: 14 9 10 3 0 14 10 15 11 10
Nghost:        9193.88 ave       10583 max        7159 min
Histogram: 6 2 8 7 9 4 28 19 1 12
Neighs:         0.00000 ave           0 max           0 min
Histogram: 96 0 0 0 0 0 0 0 0 0
FullNghs:      858505.0 ave 1.26797e+06 max      559893 min
Histogram: 18 6 13 14 9 12 0 12 2 10

Total # of neighbors = 82416474
Ave neighs/atom = 166.66628
Neighbor list builds = 2402
Dangerous builds = 0
System init for write_restart ...
System init for write_data ...
Total wall time: 16:58:33
