LAMMPS (24 Mar 2022)
OMP_NUM_THREADS environment is not set. Defaulting to 1 thread. (src/comm.cpp:98)
  using 1 OpenMP thread(s) per MPI task
# Compute elastic constant tensor for a crystal
#
# Written by Aidan Thompson (Sandia, athomps@sandia.gov)
#
#  This script uses the following three include files.
#
#   init.mod      (must be modified for different crystal structures)
# 	       	  Define units, deformation parameters and initial
#		  configuration of the atoms and simulation cell.
#
#
#   potential.mod    (must be modified for different pair styles)
# 		     Define pair style and other attributes
#		     not stored in restart file
#
#
#   displace.mod    (displace.mod should not need to be modified)
# 		    Perform positive and negative box displacements
# 		    in direction ${dir} and size ${up}.
# 		    It uses the resultant changes
#		    in stress to compute one
# 		    row of the elastic stiffness tensor
#
#		    Inputs variables:
#		    	   dir = the Voigt deformation component
#		    		    (1,2,3,4,5,6)
#		    Global constants:
#       	    	   up = the deformation magnitude (strain units)
#       		   cfac = conversion from LAMMPS pressure units to
#               	   output units for elastic constants
#
#
#  To run this on a different system, it should only be necessary to
#  modify the files init.mod and potential.mod. In order to calculate
#  the elastic constants correctly, care must be taken to specify
#  the correct units in init.mod (units, cfac and cunits). It is also
#  important to verify that the minimization of energy w.r.t atom
#  positions in the deformed cell is fully converged.
#  One indication of this is that the elastic constants are insensitive
#  to the choice of the variable ${up} in init.mod. Another is to check
#  the final max and two-norm forces reported in the log file. If you know
#  that minimization is not required, you can set maxiter = 0.0 in
#  init.mod.
#

include init.mod
# NOTE: This script can be modified for different atomic structures,
# units, etc. See in.elastic for more info.
#

# Define the finite deformation size. Try several values of this
# variable to verify that results do not depend on it.
variable up equal 1.0e-6

# Define the amount of random jiggle for atoms
# This prevents atoms from staying on saddle points
variable atomjiggle equal 1.0e-5

# Uncomment one of these blocks, depending on what units
# you are using in LAMMPS and for output

# metal units, elastic constants in eV/A^3
#units		metal
#variable cfac equal 6.2414e-7
#variable cunits string eV/A^3

# metal units, elastic constants in GPa
units		metal
variable cfac equal 1.0e-4
variable cunits string GPa

# real units, elastic constants in GPa
#units		real
#variable cfac equal 1.01325e-4
#variable cunits string GPa

# Define minimization parameters
variable etol equal 0.0
variable ftol equal 1.0e-10
variable maxiter equal 100
variable maxeval equal 1000
variable dmax equal 1.0e-2

# generate the box and atom positions using a diamond lattice

boundary	p p p

box tilt large
read_data Al2O3_npt_equil.data
Reading data file ...
  triclinic box = (0.033633176 0.029127183 0.030602755) to (28.796535 24.938529 26.201905) with tilt (-14.381451 0 0)
WARNING: Triclinic box skew is large (src/domain.cpp:228)
  1 by 1 by 1 MPI processor grid
  reading atoms ...
  2160 atoms
  reading velocities ...
  2160 velocities
  read_data CPU = 0.009 seconds



# Need to set mass to something, just to satisfy LAMMPS
mass 2 15.999

include potential.mod
# NOTE: This script can be modified for different pair styles
# See in.elastic for more info.

# Choose potential
pair_style hybrid/overlay eam/alloy edip/multi
pair_coeff * * eam/alloy Mishin-Ni-Al-2009.eam.alloy Al NULL
pair_coeff * * edip/multi NiAlO.edip Al O



# Setup neighbor style
neighbor 1.0 nsq
neigh_modify once no every 1 delay 0 check yes

# Setup minimization style
min_style	     cg
min_modify	     dmax ${dmax} line quadratic
min_modify	     dmax 0.01 line quadratic

# Setup output
thermo		1
thermo_style custom step temp pe press pxx pyy pzz pxy pxz pyz lx ly lz vol
thermo_modify norm no

min_style cg
dump   1 all atom 1 generic.lammpstrj
minimize 0.0 1.0e-6 10000 1000000

CITE-CITE-CITE-CITE-CITE-CITE-CITE-CITE-CITE-CITE-CITE-CITE-CITE

Your simulation uses code contributions which should be cited:

- @article{cjiang2012
 author    = {Jian, Chao and Morgan, Dane, and Szlufarska, Izabella},
 title     = {Carbon tri-interstitial defect: A model for DII center},
 journal   = {Physical Review B},
 volume    = {86},
 pages     = {144118},
 year      = {2012},
}

@article{lpizzagalli2010,
 author    = {G. Lucas, M. Bertolus, and L. Pizzagalli},
 journal   = {J. Phys. : Condens. Matter 22},
 volume    = {22},
 pages     = {035802},
 year      = {2010},
}

CITE-CITE-CITE-CITE-CITE-CITE-CITE-CITE-CITE-CITE-CITE-CITE-CITE

Neighbor list info ...
  update every 1 steps, delay 0 steps, check yes
  max neighbors/atom: 2000, page size: 100000
  master list distance cutoff = 7.28721
  ghost atom cutoff = 7.28721
  3 neighbor lists, perpetual/occasional/extra = 3 0 0
  (1) pair eam/alloy, perpetual, skip from (3)
      attributes: half, newton on
      pair build: skip
      stencil: none
      bin: none
  (2) pair edip/multi, perpetual
      attributes: full, newton on
      pair build: full/nsq
      stencil: none
      bin: none
  (3) neighbor class addition, perpetual, half/full from (2)
      attributes: half, newton on
      pair build: halffull/newton
      stencil: none
      bin: none
Per MPI rank memory allocation (min/avg/max) = 7.322 | 7.322 | 7.322 Mbytes
   Step          Temp          PotEng         Press           Pxx            Pyy            Pzz            Pxy            Pxz            Pyz             Lx             Ly             Lz           Volume    
         0   310.83669     -15876.499     -2507.9195      38946.437      39651.581     -86121.776      282.50118     -0.54369667    -864.85816      28.762902      24.909402      26.171302      18750.866    
         1   310.83669     -15929.408     -16746.292      26225.254      25973.746     -102437.88     -511.2383       683.91122     -1064.8312      28.762902      24.909402      26.171302      18750.866    
         2   310.83669     -15946.556     -19378.211      23343.926      23931.527     -105410.09     -205.7996      -259.76492     -893.66485      28.762902      24.909402      26.171302      18750.866    
         3   310.83669     -15952.795     -19921.567      23233.966      24051.499     -107050.16     -232.38374     -494.54767     -642.00898      28.762902      24.909402      26.171302      18750.866    
         4   310.83669     -15955.9       -19851.608      24486.32       24836.236     -108877.38     -281.70836     -738.53096     -405.70017      28.762902      24.909402      26.171302      18750.866    
         5   310.83669     -15957.534     -19442.868      25310.314      25570.511     -109209.43     -332.07448     -712.31698     -90.239675      28.762902      24.909402      26.171302      18750.866    
         6   310.83669     -15958.415     -19238.358      25962.925      26101.463     -109779.46     -299.60742     -355.10544     -130.97893      28.762902      24.909402      26.171302      18750.866    
         7   310.83669     -15959.029     -19229.068      26250.833      26589.737     -110527.77     -82.476223     -172.34037     -61.898416      28.762902      24.909402      26.171302      18750.866    
         8   310.83669     -15959.362     -19226.483      26309.88       26605.173     -110594.5      -128.93199      46.412771     -113.23692      28.762902      24.909402      26.171302      18750.866    
         9   310.83669     -15959.617     -19368.887      26202.055      26505.582     -110814.3      -102.24914     -26.429        -16.350236      28.762902      24.909402      26.171302      18750.866    
        10   310.83669     -15959.753     -19529.371      26127.768      26340.122     -111056        -156.90637     -4.9208704      23.229446      28.762902      24.909402      26.171302      18750.866    
        11   310.83669     -15959.871     -19626.708      25981.001      26169.645     -111030.77     -128.76988     -117.06337      105.83424      28.762902      24.909402      26.171302      18750.866    
        12   310.83669     -15959.945     -19695.577      25930.93       26113.165     -111130.82     -151.99034     -120.27978      138.34876      28.762902      24.909402      26.171302      18750.866    
        13   310.83669     -15960.013     -19723.696      25974.191      26150.691     -111295.97     -143.6486      -136.62702      111.93613      28.762902      24.909402      26.171302      18750.866    
        14   310.83669     -15960.062     -19668.16       26024.108      26247.953     -111276.54     -135.2129      -140.72781      109.42095      28.762902      24.909402      26.171302      18750.866    
        15   310.83669     -15960.105     -19617.845      26161.716      26354.875     -111370.13     -156.17683     -105.05552      64.049635      28.762902      24.909402      26.171302      18750.866    
        16   310.83669     -15960.141     -19584.593      26255.721      26465.311     -111474.81     -129.80577     -148.91965      66.96964       28.762902      24.909402      26.171302      18750.866    
        17   310.83669     -15960.169     -19553.591      26291.291      26492.58      -111444.64     -148.41731     -150.95065      53.748271      28.762902      24.909402      26.171302      18750.866    
        18   310.83669     -15960.192     -19576.851      26268.801      26497.814     -111497.17     -141.32118     -209.82544      80.178774      28.762902      24.909402      26.171302      18750.866    
        19   310.83669     -15960.206     -19615.937      26239.175      26448.973     -111535.96     -158.11001     -203.68856      90.138758      28.762902      24.909402      26.171302      18750.866    
        20   310.83669     -15960.22      -19646.04       26180.799      26376.372     -111495.29     -147.57146     -206.09477      107.7097       28.762902      24.909402      26.171302      18750.866    
        21   310.83669     -15960.229     -19679.493      26143.492      26344.937     -111526.91     -144.19362     -177.80192      118.16896      28.762902      24.909402      26.171302      18750.866    
        22   310.83669     -15960.239     -19695.136      26134.739      26333.174     -111553.32     -139.85243     -133.2002       107.43275      28.762902      24.909402      26.171302      18750.866    
        23   310.83669     -15960.246     -19678.09       26139.997      26356.349     -111530.62     -123.95672     -125.73384      113.91064      28.762902      24.909402      26.171302      18750.866    
        24   310.83669     -15960.252     -19659.851      26191.001      26399.842     -111570.4      -133.15889     -108.9422       113.76402      28.762902      24.909402      26.171302      18750.866    
        25   310.83669     -15960.257     -19641.053      26230.342      26438.541     -111592.04     -130.54275     -128.44677      131.33235      28.762902      24.909402      26.171302      18750.866    
        26   310.83669     -15960.262     -19618.919      26266.944      26454.946     -111578.65     -139.64262     -131.59602      136.45893      28.762902      24.909402      26.171302      18750.866    
        27   310.83669     -15960.267     -19622.418      26272.833      26469.432     -111609.52     -133.67232     -148.5827       144.97361      28.762902      24.909402      26.171302      18750.866    
        28   310.83669     -15960.271     -19635.467      26252.179      26458.76      -111617.34     -137.33427     -143.08968      139.06185      28.762902      24.909402      26.171302      18750.866    
        29   310.83669     -15960.274     -19648.222      26222.295      26429.702     -111596.66     -135.35904     -141.96828      127.96799      28.762902      24.909402      26.171302      18750.866    
        30   310.83669     -15960.277     -19668.971      26198.959      26409.799     -111615.67     -132.21896     -147.76849      126.69304      28.762902      24.909402      26.171302      18750.866    
        31   310.83669     -15960.28      -19677.655      26189.122      26392.474     -111614.56     -139.40031     -146.08268      120.72968      28.762902      24.909402      26.171302      18750.866    
        32   310.83669     -15960.282     -19672.081      26188.285      26397.711     -111602.24     -135.86324     -160.63921      125.8704       28.762902      24.909402      26.171302      18750.866    
        33   310.83669     -15960.284     -19667.198      26207.349      26414.724     -111623.67     -139.75563     -161.60574      125.38833      28.762902      24.909402      26.171302      18750.866    
        34   310.83669     -15960.285     -19655.889      26222.935      26434.91      -111625.51     -137.40811     -168.3365       134.12865      28.762902      24.909402      26.171302      18750.866    
        35   310.83669     -15960.286     -19643.462      26243.928      26446.161     -111620.48     -141.12988     -158.5592       136.49963      28.762902      24.909402      26.171302      18750.866    
        36   310.83669     -15960.287     -19644.079      26250.822      26451.365     -111634.42     -136.93455     -153.59675      137.77557      28.762902      24.909402      26.171302      18750.866    
        37   310.83669     -15960.288     -19646.739      26242.555      26448.411     -111631.18     -134.26166     -144.26271      137.14485      28.762902      24.909402      26.171302      18750.866    
        38   310.83669     -15960.288     -19651.218      26232.286      26438.388     -111624.33     -134.84383     -138.05922      134.5423       28.762902      24.909402      26.171302      18750.866    
        39   310.83669     -15960.289     -19660.649      26220.904      26428.05      -111630.9      -133.15999     -141.50624      137.10805      28.762902      24.909402      26.171302      18750.866    
        40   310.83669     -15960.289     -19663.745      26215.975      26419.393     -111626.6      -135.95727     -141.74555      137.76303      28.762902      24.909402      26.171302      18750.866    
        41   310.83669     -15960.289     -19663.318      26214.816      26418.636     -111623.41     -135.54792     -147.56789      141.54286      28.762902      24.909402      26.171302      18750.866    
        42   310.83669     -15960.29      -19662.613      26220.459      26421.831     -111630.13     -137.01377     -146.9          140.09219      28.762902      24.909402      26.171302      18750.866    
        43   310.83669     -15960.29      -19658.203      26224.802      26429.517     -111628.93     -135.17529     -148.67109      139.27901      28.762902      24.909402      26.171302      18750.866    
        44   310.83669     -15960.29      -19654.589      26229.378      26435.365     -111628.51     -135.95282     -147.20589      137.21401      28.762902      24.909402      26.171302      18750.866    
        45   310.83669     -15960.29      -19653.934      26233.088      26437.973     -111632.86     -136.24977     -147.33677      135.59296      28.762902      24.909402      26.171302      18750.866    
        46   310.83669     -15960.29      -19653.297      26232.78       26437.918     -111630.59     -135.80326     -149.02988      135.61275      28.762902      24.909402      26.171302      18750.866    
        47   310.83669     -15960.29      -19654.512      26230.51       26435.402     -111629.45     -136.72643     -149.18427      135.20458      28.762902      24.909402      26.171302      18750.866    
        48   310.83669     -15960.29      -19657.327      26226.725      26432.735     -111631.44     -136.2496      -151.25889      136.41861      28.762902      24.909402      26.171302      18750.866    
        49   310.83669     -15960.29      -19658.275      26224.768      26429.599     -111629.19     -136.78841     -150.5134       136.40605      28.762902      24.909402      26.171302      18750.866    
        50   310.83669     -15960.29      -19659.003      26223.363      26428.387     -111628.76     -136.21737     -150.55439      137.61554      28.762902      24.909402      26.171302      18750.866    
        51   310.83669     -15960.29      -19659.267      26224.334      26428.512     -111630.65     -136.59532     -148.49032      137.38031      28.762902      24.909402      26.171302      18750.866    
        52   310.83669     -15960.29      -19657.817      26225.77       26430.289     -111629.51     -135.78895     -147.34402      137.10731      28.762902      24.909402      26.171302      18750.866    
        53   310.83669     -15960.29      -19656.685      26227.256      26432.629     -111629.94     -135.47782     -146.57193      137.0516       28.762902      24.909402      26.171302      18750.866    
        54   310.83669     -15960.29      -19656.17       26228.962      26434.02      -111631.49     -135.89774     -146.37159      137.02911      28.762902      24.909402      26.171302      18750.866    
        55   310.83669     -15960.29      -19655.582      26229.403      26434.194     -111630.34     -135.82631     -147.42433      137.70869      28.762902      24.909402      26.171302      18750.866    
        56   310.83669     -15960.29      -19655.995      26229.135      26433.287     -111630.41     -136.18221     -147.54216      137.73538      28.762902      24.909402      26.171302      18750.866    
        57   310.83669     -15960.29      -19656.894      26227.8        26432.466     -111630.95     -135.95368     -148.23603      138.03306      28.762902      24.909402      26.171302      18750.866    
        58   310.83669     -15960.29      -19657.315      26226.675      26431.222     -111629.84     -136.18001     -147.82552      137.41755      28.762902      24.909402      26.171302      18750.866    
        59   310.83669     -15960.29      -19657.915      26225.574      26430.656     -111629.98     -135.87447     -148.15238      137.08518      28.762902      24.909402      26.171302      18750.866    
        60   310.83669     -15960.29      -19658.109      26225.534      26430.654     -111630.51     -136.07605     -148.11923      136.82838      28.762902      24.909402      26.171302      18750.866    
        61   310.83669     -15960.29      -19657.591      26226.153      26430.974     -111629.9      -136.20295     -148.42056      136.70344      28.762902      24.909402      26.171302      18750.866    
        62   310.83669     -15960.29      -19657.206      26226.896      26431.811     -111630.33     -136.10327     -148.85586      136.86838      28.762902      24.909402      26.171302      18750.866    
        63   310.83669     -15960.29      -19656.791      26227.757      26432.684     -111630.81     -136.24199     -148.85543      136.91548      28.762902      24.909402      26.171302      18750.866    
        64   310.83669     -15960.29      -19656.434      26227.977      26433.035     -111630.32     -136.14753     -148.99074      137.18487      28.762902      24.909402      26.171302      18750.866    
        65   310.83669     -15960.29      -19656.577      26228.078      26432.741     -111630.55     -136.23614     -148.48306      137.1373       28.762902      24.909402      26.171302      18750.866    
        66   310.83669     -15960.29      -19656.875      26227.613      26432.417     -111630.65     -136.02589     -148.31901      137.28741      28.762902      24.909402      26.171302      18750.866    
        67   310.83669     -15960.291     -19657.118      26226.993      26431.79      -111630.14     -136.06502     -147.80642      137.16928      28.762902      24.909402      26.171302      18750.866    
        68   310.83669     -15960.291     -19657.475      26226.504      26431.385     -111630.31     -135.93372     -147.7306       137.15209      28.762902      24.909402      26.171302      18750.866    
        69   310.83669     -15960.291     -19657.597      26226.352      26431.278     -111630.42     -135.93961     -147.81217      137.25034      28.762902      24.909402      26.171302      18750.866    
        70   310.83669     -15960.291     -19657.41       26226.563      26431.326     -111630.12     -136.0796      -147.93021      137.33385      28.762902      24.909402      26.171302      18750.866    
        71   310.83669     -15960.291     -19657.272      26226.932      26431.66      -111630.41     -136.05281     -148.14029      137.44039      28.762902      24.909402      26.171302      18750.866    
        72   310.83669     -15960.291     -19657.037      26227.372      26432.043     -111630.53     -136.08854     -148.08941      137.32863      28.762902      24.909402      26.171302      18750.866    
        73   310.83669     -15960.291     -19656.838      26227.467      26432.352     -111630.33     -136.0106      -148.18863      137.30709      28.762902      24.909402      26.171302      18750.866    
        74   310.83669     -15960.291     -19656.856      26227.547      26432.403     -111630.52     -136.08666     -148.09568      137.12474      28.762902      24.909402      26.171302      18750.866    
        75   310.83669     -15960.291     -19656.929      26227.416      26432.302     -111630.5      -136.04305     -148.22131      137.10598      28.762902      24.909402      26.171302      18750.866    
        76   310.83669     -15960.291     -19657.035      26227.174      26432.037     -111630.32     -136.08919     -148.27867      137.10647      28.762902      24.909402      26.171302      18750.866    
        77   310.83669     -15960.291     -19657.18       26227.021      26431.856     -111630.42     -136.10854     -148.33369      137.11891      28.762902      24.909402      26.171302      18750.866    
        78   310.83669     -15960.291     -19657.247      26226.896      26431.758     -111630.39     -136.08256     -148.37915      137.16401      28.762902      24.909402      26.171302      18750.866    
        79   310.83669     -15960.291     -19657.234      26226.874      26431.723     -111630.3      -136.09816     -148.31895      137.17254      28.762902      24.909402      26.171302      18750.866    
        80   310.83669     -15960.291     -19657.21       26226.963      26431.823     -111630.42     -136.07503     -148.29051      137.21831      28.762902      24.909402      26.171302      18750.866    
        81   310.83669     -15960.291     -19657.127      26227.119      26431.909     -111630.41     -136.08729     -148.17527      137.18991      28.762902      24.909402      26.171302      18750.866    
        82   310.83669     -15960.291     -19657.053      26227.184      26432.022     -111630.37     -136.04291     -148.16612      137.20169      28.762902      24.909402      26.171302      18750.866    
        83   310.83669     -15960.291     -19657.034      26227.246      26432.098     -111630.45     -136.05527     -148.1181       137.18409      28.762902      24.909402      26.171302      18750.866    
        84   310.83669     -15960.291     -19657.035      26227.237      26432.08      -111630.42     -136.05504     -148.14522      137.19426      28.762902      24.909402      26.171302      18750.866    
        85   310.83669     -15960.291     -19657.063      26227.184      26432.01      -111630.38     -136.06421     -148.1834       137.2175       28.762902      24.909402      26.171302      18750.866    
        86   310.83669     -15960.291     -19657.109      26227.139      26431.954     -111630.42     -136.07671     -148.19206      137.21909      28.762902      24.909402      26.171302      18750.866    
        87   310.83669     -15960.291     -19657.139      26227.073      26431.902     -111630.39     -136.0681      -148.20906      137.21819      28.762902      24.909402      26.171302      18750.866    
        88   310.83669     -15960.291     -19657.146      26227.053      26431.88      -111630.37     -136.07087     -148.19488      137.19179      28.762902      24.909402      26.171302      18750.866    
        89   310.83669     -15960.291     -19657.146      26227.056      26431.912     -111630.41     -136.06078     -148.21091      137.18407      28.762902      24.909402      26.171302      18750.866    
        90   310.83669     -15960.291     -19657.122      26227.092      26431.934     -111630.39     -136.07585     -148.20277      137.16776      28.762902      24.909402      26.171302      18750.866    
        91   310.83669     -15960.291     -19657.092      26227.137      26431.974     -111630.39     -136.07147     -148.22849      137.17381      28.762902      24.909402      26.171302      18750.866    
        92   310.83669     -15960.291     -19657.081      26227.171      26432.007     -111630.42     -136.07572     -148.23564      137.18008      28.762902      24.909402      26.171302      18750.866    
        93   310.83669     -15960.291     -19657.074      26227.172      26432.011     -111630.4      -136.07772     -148.2349       137.18473      28.762902      24.909402      26.171302      18750.866    
        94   310.83669     -15960.291     -19657.082      26227.154      26431.995     -111630.4      -136.07257     -148.23103      137.19195      28.762902      24.909402      26.171302      18750.866    
        95   310.83669     -15960.291     -19657.103      26227.135      26431.968     -111630.41     -136.07338     -148.21187      137.19011      28.762902      24.909402      26.171302      18750.866    
        96   310.83669     -15960.291     -19657.115      26227.106      26431.942     -111630.39     -136.06774     -148.2029       137.19586      28.762902      24.909402      26.171302      18750.866    
        97   310.83669     -15960.291     -19657.121      26227.098      26431.927     -111630.39     -136.07032     -148.18763      137.18954      28.762902      24.909402      26.171302      18750.866    
        98   310.83669     -15960.291     -19657.124      26227.095      26431.934     -111630.4      -136.06357     -148.19246      137.1925       28.762902      24.909402      26.171302      18750.866    
        99   310.83669     -15960.291     -19657.115      26227.104      26431.943     -111630.39     -136.06804     -148.19186      137.19309      28.762902      24.909402      26.171302      18750.866    
       100   310.83669     -15960.291     -19657.106      26227.123      26431.956     -111630.4      -136.06994     -148.19987      137.19675      28.762902      24.909402      26.171302      18750.866    
       101   310.83669     -15960.291     -19657.101      26227.135      26431.967     -111630.41     -136.07001     -148.20398      137.19811      28.762902      24.909402      26.171302      18750.866    
       102   310.83669     -15960.291     -19657.096      26227.14       26431.972     -111630.4      -136.07046     -148.20383      137.19486      28.762902      24.909402      26.171302      18750.866    
       103   310.83669     -15960.291     -19657.097      26227.137      26431.974     -111630.4      -136.06919     -148.20569      137.193        28.762902      24.909402      26.171302      18750.866    
       104   310.83669     -15960.291     -19657.103      26227.131      26431.966     -111630.4      -136.07063     -148.20425      137.1878       28.762902      24.909402      26.171302      18750.866    
       105   310.83669     -15960.291     -19657.106      26227.12       26431.959     -111630.4      -136.06937     -148.20882      137.18817      28.762902      24.909402      26.171302      18750.866    
       106   310.83669     -15960.291     -19657.11       26227.115      26431.951     -111630.4      -136.07209     -148.20853      137.18741      28.762902      24.909402      26.171302      18750.866    
       107   310.83669     -15960.291     -19657.113      26227.113      26431.948     -111630.4      -136.07103     -148.21205      137.18935      28.762902      24.909402      26.171302      18750.866    
       108   310.83669     -15960.291     -19657.11       26227.114      26431.95      -111630.4      -136.0709      -148.21129      137.19038      28.762902      24.909402      26.171302      18750.866    
       109   310.83669     -15960.291     -19657.107      26227.12       26431.957     -111630.4      -136.07089     -148.20918      137.19121      28.762902      24.909402      26.171302      18750.866    
       110   310.83669     -15960.291     -19657.105      26227.126      26431.962     -111630.4      -136.07026     -148.20735      137.192        28.762902      24.909402      26.171302      18750.866    
       111   310.83669     -15960.291     -19657.102      26227.13       26431.964     -111630.4      -136.0702      -148.20378      137.19125      28.762902      24.909402      26.171302      18750.866    
       112   310.83669     -15960.291     -19657.102      26227.129      26431.965     -111630.4      -136.06917     -148.20367      137.19202      28.762902      24.909402      26.171302      18750.866    
       113   310.83669     -15960.291     -19657.104      26227.127      26431.963     -111630.4      -136.07001     -148.20218      137.19099      28.762902      24.909402      26.171302      18750.866    
       114   310.83669     -15960.291     -19657.105      26227.123      26431.96      -111630.4      -136.06924     -148.2041       137.19187      28.762902      24.909402      26.171302      18750.866    
       115   310.83669     -15960.291     -19657.107      26227.121      26431.956     -111630.4      -136.07012     -148.20466      137.19232      28.762902      24.909402      26.171302      18750.866    
       116   310.83669     -15960.291     -19657.108      26227.12       26431.955     -111630.4      -136.07031     -148.20558      137.1926       28.762902      24.909402      26.171302      18750.866    
       117   310.83669     -15960.291     -19657.107      26227.12       26431.955     -111630.4      -136.07008     -148.20579      137.19211      28.762902      24.909402      26.171302      18750.866    
       118   310.83669     -15960.291     -19657.107      26227.121      26431.957     -111630.4      -136.07003     -148.20558      137.19121      28.762902      24.909402      26.171302      18750.866    
       119   310.83669     -15960.291     -19657.106      26227.123      26431.959     -111630.4      -136.06996     -148.20608      137.19099      28.762902      24.909402      26.171302      18750.866    
       120   310.83669     -15960.291     -19657.105      26227.125      26431.96      -111630.4      -136.07037     -148.20603      137.19044      28.762902      24.909402      26.171302      18750.866    
       121   310.83669     -15960.291     -19657.105      26227.125      26431.961     -111630.4      -136.07009     -148.20684      137.19088      28.762902      24.909402      26.171302      18750.866    
       122   310.83669     -15960.291     -19657.105      26227.125      26431.96      -111630.4      -136.07041     -148.20664      137.19096      28.762902      24.909402      26.171302      18750.866    
       123   310.83669     -15960.291     -19657.105      26227.124      26431.96      -111630.4      -136.07025     -148.20673      137.19119      28.762902      24.909402      26.171302      18750.866    
       124   310.83669     -15960.291     -19657.106      26227.123      26431.959     -111630.4      -136.07019     -148.20634      137.19126      28.762902      24.909402      26.171302      18750.866    
       125   310.83669     -15960.291     -19657.106      26227.123      26431.958     -111630.4      -136.07017     -148.20602      137.19129      28.762902      24.909402      26.171302      18750.866    
       126   310.83669     -15960.291     -19657.106      26227.122      26431.958     -111630.4      -136.07011     -148.20574      137.19134      28.762902      24.909402      26.171302      18750.866    
       127   310.83669     -15960.291     -19657.106      26227.123      26431.958     -111630.4      -136.0701      -148.20549      137.19123      28.762902      24.909402      26.171302      18750.866    
       128   310.83669     -15960.291     -19657.106      26227.123      26431.959     -111630.4      -136.06998     -148.20563      137.19135      28.762902      24.909402      26.171302      18750.866    
       129   310.83669     -15960.291     -19657.106      26227.123      26431.959     -111630.4      -136.07013     -148.20556      137.19131      28.762902      24.909402      26.171302      18750.866    
       130   310.83669     -15960.291     -19657.106      26227.124      26431.959     -111630.4      -136.07009     -148.20583      137.19147      28.762902      24.909402      26.171302      18750.866    
       131   310.83669     -15960.291     -19657.105      26227.124      26431.959     -111630.4      -136.07016     -148.20581      137.19146      28.762902      24.909402      26.171302      18750.866    
       132   310.83669     -15960.291     -19657.106      26227.124      26431.959     -111630.4      -136.07013     -148.20584      137.19141      28.762902      24.909402      26.171302      18750.866    
       133   310.83669     -15960.291     -19657.106      26227.123      26431.959     -111630.4      -136.07011     -148.20583      137.19128      28.762902      24.909402      26.171302      18750.866    
       134   310.83669     -15960.291     -19657.106      26227.123      26431.959     -111630.4      -136.07012     -148.20584      137.19118      28.762902      24.909402      26.171302      18750.866    
       135   310.83669     -15960.291     -19657.106      26227.123      26431.959     -111630.4      -136.07012     -148.20596      137.1912       28.762902      24.909402      26.171302      18750.866    
       136   310.83669     -15960.291     -19657.106      26227.123      26431.959     -111630.4      -136.07019     -148.20596      137.19118      28.762902      24.909402      26.171302      18750.866    
       137   310.83669     -15960.291     -19657.106      26227.123      26431.959     -111630.4      -136.07014     -148.20608      137.19127      28.762902      24.909402      26.171302      18750.866    
       138   310.83669     -15960.291     -19657.106      26227.123      26431.959     -111630.4      -136.07017     -148.206        137.19127      28.762902      24.909402      26.171302      18750.866    
       139   310.83669     -15960.291     -19657.106      26227.123      26431.959     -111630.4      -136.07014     -148.20597      137.19129      28.762902      24.909402      26.171302      18750.866    
       140   310.83669     -15960.291     -19657.106      26227.123      26431.959     -111630.4      -136.07013     -148.20589      137.19128      28.762902      24.909402      26.171302      18750.866    
       141   310.83669     -15960.291     -19657.106      26227.123      26431.959     -111630.4      -136.07012     -148.20582      137.19128      28.762902      24.909402      26.171302      18750.866    
       142   310.83669     -15960.291     -19657.106      26227.123      26431.959     -111630.4      -136.07011     -148.2058       137.19129      28.762902      24.909402      26.171302      18750.866    
       143   310.83669     -15960.291     -19657.106      26227.123      26431.959     -111630.4      -136.07012     -148.20578      137.19127      28.762902      24.909402      26.171302      18750.866    
       144   310.83669     -15960.291     -19657.106      26227.123      26431.959     -111630.4      -136.0701      -148.20585      137.19132      28.762902      24.909402      26.171302      18750.866    
       145   310.83669     -15960.291     -19657.106      26227.123      26431.959     -111630.4      -136.07015     -148.20585      137.19132      28.762902      24.909402      26.171302      18750.866    
       146   310.83669     -15960.291     -19657.106      26227.123      26431.959     -111630.4      -136.07013     -148.2059       137.19134      28.762902      24.909402      26.171302      18750.866    
       147   310.83669     -15960.291     -19657.106      26227.123      26431.959     -111630.4      -136.07014     -148.20588      137.1913       28.762902      24.909402      26.171302      18750.866    
       148   310.83669     -15960.291     -19657.106      26227.123      26431.959     -111630.4      -136.07013     -148.20588      137.19127      28.762902      24.909402      26.171302      18750.866    
Loop time of 3.93019 on 1 procs for 148 steps with 2160 atoms

99.9% CPU use with 1 MPI tasks x 1 OpenMP threads

Minimization stats:
  Stopping criterion = force tolerance
  Energy initial, next-to-last, final = 
     -15876.4988085496  -15960.2905070872  -15960.2905070873
  Force two-norm initial, final = 59.269654 8.9227094e-07
  Force max component initial, final = 2.7018775 3.9481723e-08
  Final line search alpha, max atom move = 1 3.9481723e-08
  Iterations, force evaluations = 148 296

MPI task timing breakdown:
Section |  min time  |  avg time  |  max time  |%varavg| %total
---------------------------------------------------------------
Pair    | 3.6879     | 3.6879     | 3.6879     |   0.0 | 93.83
Neigh   | 0          | 0          | 0          |   0.0 |  0.00
Comm    | 0.0090914  | 0.0090914  | 0.0090914  |   0.0 |  0.23
Output  | 0.21729    | 0.21729    | 0.21729    |   0.0 |  5.53
Modify  | 0          | 0          | 0          |   0.0 |  0.00
Other   |            | 0.01593    |            |       |  0.41

Nlocal:           2160 ave        2160 max        2160 min
Histogram: 1 0 0 0 0 0 0 0 0 0
Nghost:           6452 ave        6452 max        6452 min
Histogram: 1 0 0 0 0 0 0 0 0 0
Neighs:              0 ave           0 max           0 min
Histogram: 1 0 0 0 0 0 0 0 0 0
FullNghs:       158908 ave      158908 max      158908 min
Histogram: 1 0 0 0 0 0 0 0 0 0

Total # of neighbors = 158908
Ave neighs/atom = 73.568519
Neighbor list builds = 0
Dangerous builds = 0


# Compute initial state
fix 3 all box/relax  aniso 0.0
minimize ${etol} ${ftol} ${maxiter} ${maxeval}
minimize 0 ${ftol} ${maxiter} ${maxeval}
minimize 0 1e-10 ${maxiter} ${maxeval}
minimize 0 1e-10 100 ${maxeval}
minimize 0 1e-10 100 1000
Per MPI rank memory allocation (min/avg/max) = 7.322 | 7.322 | 7.322 Mbytes
   Step          Temp          PotEng         Press           Pxx            Pyy            Pzz            Pxy            Pxz            Pyz             Lx             Ly             Lz           Volume    
       148   310.83669     -15960.291     -19657.106      26227.123      26431.959     -111630.4      -136.07013     -148.20588      137.19127      28.762902      24.909402      26.171302      18750.866    
       149   310.83669     -15960.436     -19538.737      26289.242      26494.09      -111399.54     -136.0785      -148.21528      137.19994      28.763429      24.909859      26.168685      18749.679    
       150   310.83669     -15960.581     -19420.94       26350.557      26555.417     -111168.79     -136.08685     -148.22465      137.20858      28.76396       24.910318      26.166068      18748.495    
       151   310.83669     -15960.726     -19303.71       26411.075      26615.947     -110938.15     -136.09518     -148.234        137.2172       28.764492      24.910779      26.163451      18747.314    
       152   310.83669     -15960.871     -19187.047      26470.798      26675.682     -110707.62     -136.10349     -148.24332      137.2258       28.765028      24.911243      26.160834      18746.136    
       153   310.83669     -15961.016     -19070.947      26529.728      26734.625     -110477.19     -136.11178     -148.25262      137.23438      28.765565      24.911708      26.158217      18744.962    
       154   310.83669     -15961.161     -18955.406      26587.871      26792.78      -110246.87     -136.12005     -148.2619       137.24294      28.766105      24.912176      26.1556        18743.79     
       155   310.83669     -15961.305     -18840.421      26645.229      26850.15      -110016.64     -136.1283      -148.27116      137.25148      28.766648      24.912646      26.152983      18742.622    
       156   310.83669     -15961.449     -18725.989      26701.806      26906.739     -109786.51     -136.13653     -148.28039      137.25999      28.767193      24.913118      26.150365      18741.457    
       157   310.83669     -15961.593     -18612.105      26757.605      26962.549     -109556.47     -136.14473     -148.2896       137.26849      28.767741      24.913592      26.147748      18740.294    
       158   310.83669     -15961.737     -18498.769      26812.627      27017.583     -109326.52     -136.15292     -148.29879      137.27696      28.768291      24.914069      26.145131      18739.135    
       159   310.83669     -15961.88      -18385.982      26866.876      27071.844     -109096.67     -136.16108     -148.30795      137.28541      28.768843      24.914547      26.142514      18737.979    
       160   310.83669     -15962.024     -18273.74       26920.356      27125.336     -108866.91     -136.16922     -148.31709      137.29384      28.769398      24.915028      26.139897      18736.826    
       161   310.83669     -15962.167     -18162.039      26973.071      27178.062     -108637.25     -136.17735     -148.32621      137.30225      28.769955      24.91551       26.13728       18735.675    
       162   310.83669     -15962.31      -18050.874      27025.023      27230.026     -108407.67     -136.18545     -148.33531      137.31064      28.770515      24.915995      26.134663      18734.528    
       163   310.83669     -15962.452     -17940.241      27076.217      27281.232     -108178.17     -136.19353     -148.34438      137.31901      28.771076      24.916481      26.132046      18733.384    
       164   310.83669     -15962.595     -17830.134      27126.659      27331.686     -107948.75     -136.2016      -148.35343      137.32735      28.771641      24.91697       26.129428      18732.242    
       165   310.83669     -15962.737     -17720.555      27176.35       27381.388     -107719.4      -136.20964     -148.36246      137.33568      28.772207      24.917461      26.126811      18731.104    
       166   310.83669     -15962.879     -17611.501      27225.292      27430.342     -107490.14     -136.21766     -148.37147      137.34399      28.772776      24.917953      26.124194      18729.968    
       167   310.83669     -15963.021     -17502.966      27273.489      27478.551     -107260.94     -136.22567     -148.38046      137.35227      28.773348      24.918448      26.121577      18728.836    
       168   310.83669     -15963.163     -17394.95       27320.944      27526.018     -107031.81     -136.23365     -148.38942      137.36054      28.773921      24.918945      26.11896       18727.706    
       169   310.83669     -15963.305     -17287.449      27367.661      27572.746     -106802.75     -136.24162     -148.39836      137.36878      28.774497      24.919444      26.116343      18726.579    
       170   310.83669     -15963.446     -17180.461      27413.643      27618.739     -106573.76     -136.24956     -148.40728      137.37701      28.775075      24.919945      26.113726      18725.455    
       171   310.83669     -15963.587     -17073.98       27458.895      27664.003     -106344.84     -136.25749     -148.41618      137.38521      28.775656      24.920447      26.111108      18724.334    
       172   310.83669     -15963.728     -16968.003      27503.423      27708.542     -106115.97     -136.26539     -148.42506      137.3934       28.776239      24.920952      26.108491      18723.215    
       173   310.83669     -15963.869     -16862.528      27547.229      27752.36      -105887.17     -136.27328     -148.43392      137.40156      28.776824      24.921459      26.105874      18722.1      
       174   310.83669     -15964.009     -16757.552      27590.317      27795.459     -105658.43     -136.28115     -148.44275      137.40971      28.777411      24.921967      26.103257      18720.987    
       175   310.83669     -15964.15      -16653.072      27632.689      27837.843     -105429.75     -136.289       -148.45157      137.41784      28.778001      24.922478      26.10064       18719.877    
       176   310.83669     -15964.29      -16549.083      27674.351      27879.516     -105201.12     -136.29683     -148.46036      137.42594      28.778593      24.922991      26.098023      18718.77     
       177   310.83669     -15964.43      -16445.582      27715.305      27920.481     -104972.53     -136.30464     -148.46913      137.43403      28.779187      24.923505      26.095406      18717.666    
       178   310.83669     -15964.57      -16342.57       27755.55       27960.737     -104744        -136.31243     -148.47788      137.4421       28.779783      24.924021      26.092789      18716.564    
       179   310.83669     -15964.709     -16240.038      27795.094      28000.293     -104515.5      -136.3202      -148.48661      137.45015      28.780382      24.92454       26.090171      18715.465    
       180   310.83669     -15964.848     -16137.984      27833.942      28039.152     -104287.05     -136.32796     -148.49532      137.45818      28.780982      24.92506       26.087554      18714.369    
       181   310.83669     -15964.988     -16036.406      27872.096      28077.318     -104058.63     -136.33569     -148.50401      137.46619      28.781585      24.925582      26.084937      18713.276    
       182   310.83669     -15965.127     -15935.299      27909.56       28114.792     -103830.25     -136.34341     -148.51268      137.47418      28.78219       24.926106      26.08232       18712.185    
       183   310.83669     -15965.265     -15834.662      27946.337      28151.58      -103601.9      -136.35111     -148.52133      137.48215      28.782797      24.926632      26.079703      18711.097    
       184   310.83669     -15965.404     -15734.491      27982.43       28187.685     -103373.59     -136.35879     -148.52996      137.49011      28.783407      24.92716       26.077086      18710.011    
       185   310.83669     -15965.542     -15634.786      28017.841      28223.107     -103145.31     -136.36646     -148.53857      137.49804      28.784019      24.92769       26.074469      18708.929    
       186   310.83669     -15965.68      -15535.553      28052.568      28257.846     -102917.07     -136.3741      -148.54715      137.50596      28.784632      24.928221      26.071852      18707.849    
       187   310.83669     -15965.818     -15436.787      28086.615      28291.903     -102688.88     -136.38173     -148.55572      137.51386      28.785248      24.928754      26.069234      18706.771    
       188   310.83669     -15965.956     -15338.481      28119.984      28325.283     -102460.71     -136.38934     -148.56427      137.52174      28.785866      24.92929       26.066617      18705.696    
       189   310.83669     -15966.093     -15240.632      28152.679      28357.989     -102232.57     -136.39693     -148.5728       137.5296       28.786486      24.929827      26.064         18704.624    
       190   310.83669     -15966.231     -15143.239      28184.703      28390.025     -102004.45     -136.40451     -148.58131      137.53745      28.787108      24.930366      26.061383      18703.554    
       191   310.83669     -15966.368     -15046.299      28216.06       28421.392     -101776.35     -136.41206     -148.5898       137.54527      28.787733      24.930906      26.058766      18702.487    
       192   310.83669     -15966.505     -14949.808      28246.754      28452.097     -101548.27     -136.4196      -148.59827      137.55308      28.788359      24.931449      26.056149      18701.423    
       193   310.83669     -15966.641     -14853.76       28276.792      28482.146     -101320.22     -136.42712     -148.60672      137.56087      28.788988      24.931993      26.053532      18700.361    
       194   310.83669     -15966.778     -14758.155      28306.174      28511.539     -101092.18     -136.43463     -148.61515      137.56864      28.789618      24.932539      26.050914      18699.302    
       195   310.83669     -15966.914     -14662.989      28334.903      28540.279     -100864.15     -136.44212     -148.62356      137.57639      28.790251      24.933087      26.048297      18698.245    
       196   310.83669     -15967.05      -14568.26       28362.983      28568.369     -100636.13     -136.44959     -148.63196      137.58413      28.790885      24.933637      26.04568       18697.19     
       197   310.83669     -15967.186     -14473.964      28390.416      28595.814     -100408.12     -136.45704     -148.64033      137.59185      28.791522      24.934188      26.043063      18696.139    
       198   310.83669     -15967.321     -14380.098      28417.207      28622.615     -100180.12     -136.46448     -148.64868      137.59955      28.792161      24.934741      26.040446      18695.089    
       199   310.83669     -15967.457     -14286.661      28443.358      28648.776     -99952.117     -136.47189     -148.65702      137.60723      28.792802      24.935296      26.037829      18694.042    
       200   310.83669     -15967.592     -14193.648      28468.872      28674.301     -99724.118     -136.4793      -148.66534      137.6149       28.793445      24.935853      26.035212      18692.998    
       201   310.83669     -15967.727     -14101.056      28493.754      28699.194     -99496.116     -136.48668     -148.67364      137.62255      28.794089      24.936411      26.032595      18691.956    
       202   310.83669     -15967.862     -14008.883      28518.008      28723.459     -99268.116     -136.49405     -148.68192      137.63018      28.794736      24.936971      26.029977      18690.917    
       203   310.83669     -15967.996     -13917.128      28541.635      28747.097     -99040.117     -136.5014      -148.69018      137.6378       28.795385      24.937533      26.02736       18689.88     
       204   310.83669     -15968.131     -13825.787      28564.639      28770.111     -98812.112     -136.50874     -148.69842      137.64539      28.796036      24.938097      26.024743      18688.845    
       205   310.83669     -15968.265     -13734.856      28587.023      28792.506     -98584.097     -136.51606     -148.70665      137.65297      28.796688      24.938662      26.022126      18687.813    
       206   310.83669     -15968.399     -13644.332      28608.79       28814.284     -98356.072     -136.52336     -148.71485      137.66054      28.797343      24.939229      26.019509      18686.783    
       207   310.83669     -15968.532     -13554.215      28629.943      28835.447     -98128.034     -136.53065     -148.72304      137.66808      28.798         24.939798      26.016892      18685.756    
       208   310.83669     -15968.666     -13464.503      28650.481      28855.995     -97899.984     -136.53792     -148.73121      137.67561      28.798658      24.940368      26.014275      18684.731    
       209   310.83669     -15968.799     -13375.188      28670.413      28875.938     -97671.914     -136.54517     -148.73937      137.68313      28.799319      24.94094       26.011658      18683.708    
       210   310.83669     -15968.932     -13286.265      28689.743      28895.279     -97443.818     -136.55241     -148.7475       137.69062      28.799981      24.941514      26.00904       18682.688    
       211   310.83669     -15969.065     -13197.734      28708.475      28914.021     -97215.699     -136.55964     -148.75562      137.69811      28.800646      24.942089      26.006423      18681.67     
       212   310.83669     -15969.198     -13109.593      28726.61       28932.167     -96987.558     -136.56684     -148.76372      137.70557      28.801312      24.942666      26.003806      18680.654    
       213   310.83669     -15969.33      -13021.839      28744.153      28949.72      -96759.389     -136.57403     -148.7718       137.71302      28.80198       24.943245      26.001189      18679.641    
       214   310.83669     -15969.462     -12934.469      28761.104      28966.681     -96531.193     -136.58121     -148.77986      137.72045      28.802651      24.943826      25.998572      18678.63     
       215   310.83669     -15969.594     -12847.482      28777.466      28983.054     -96302.967     -136.58837     -148.78791      137.72786      28.803323      24.944408      25.995955      18677.621    
       216   310.83669     -15969.726     -12760.881      28793.238      28998.836     -96074.715     -136.59551     -148.79594      137.73526      28.803997      24.944991      25.993338      18676.614    
       217   310.83669     -15969.858     -12674.661      28808.419      29014.028     -95846.43      -136.60264     -148.80395      137.74265      28.804672      24.945576      25.990721      18675.61     
       218   310.83669     -15969.989     -12588.821      28823.013      29028.632     -95618.11      -136.60975     -148.81195      137.75001      28.80535       24.946163      25.988103      18674.608    
       219   310.83669     -15970.12      -12503.36       28837.024      29042.654     -95389.759     -136.61685     -148.81992      137.75737      28.806029      24.946752      25.985486      18673.609    
       220   310.83669     -15970.251     -12418.275      28850.455      29056.095     -95161.376     -136.62394     -148.82789      137.7647       28.806711      24.947342      25.982869      18672.611    
       221   310.83669     -15970.382     -12333.564      28863.308      29068.957     -94932.956     -136.631       -148.83583      137.77202      28.807394      24.947934      25.980252      18671.616    
       222   310.83669     -15970.512     -12249.224      28875.585      29081.245     -94704.502     -136.63806     -148.84376      137.77933      28.808079      24.948527      25.977635      18670.623    
       223   310.83669     -15970.642     -12165.252      28887.291      29092.961     -94476.008     -136.64509     -148.85167      137.78661      28.808766      24.949122      25.975018      18669.632    
       224   310.83669     -15970.772     -12081.637      28898.434      29104.114     -94247.458     -136.65212     -148.85956      137.79389      28.809455      24.949718      25.972401      18668.644    
       225   310.83669     -15970.902     -11998.38       28909.013      29114.703     -94018.855     -136.65912     -148.86744      137.80115      28.810145      24.950316      25.969783      18667.658    
       226   310.83669     -15971.032     -11915.482      28919.029      29124.73      -93790.206     -136.66612     -148.8753       137.80839      28.810837      24.950916      25.967166      18666.673    
       227   310.83669     -15971.161     -11832.94       28928.487      29134.197     -93561.503     -136.67309     -148.88314      137.81562      28.811532      24.951517      25.964549      18665.691    
       228   310.83669     -15971.29      -11750.75       28937.387      29143.108     -93332.745     -136.68006     -148.89097      137.82283      28.812227      24.952119      25.961932      18664.712    
       229   310.83669     -15971.419     -11668.916      28945.734      29151.465     -93103.946     -136.68701     -148.89878      137.83002      28.812925      24.952724      25.959315      18663.734    
       230   310.83669     -15971.548     -11587.434      28953.53       29159.271     -92875.103     -136.69394     -148.90657      137.83721      28.813625      24.953329      25.956698      18662.758    
       231   310.83669     -15971.676     -11506.299      28960.777      29166.528     -92646.203     -136.70086     -148.91435      137.84437      28.814326      24.953937      25.954081      18661.785    
       232   310.83669     -15971.804     -11425.503      28967.482      29173.243     -92417.234     -136.70777     -148.92211      137.85152      28.815029      24.954545      25.951464      18660.814    
       233   310.83669     -15971.932     -11345.046      28973.645      29179.416     -92188.198     -136.71466     -148.92986      137.85866      28.815733      24.955156      25.948846      18659.844    
       234   310.83669     -15972.06      -11264.922      28979.27       29185.051     -91959.088     -136.72153     -148.93759      137.86578      28.81644       24.955767      25.946229      18658.877    
       235   310.83669     -15972.188     -11185.132      28984.359      29190.15      -91729.905     -136.7284      -148.9453       137.87289      28.817148      24.956381      25.943612      18657.912    
       236   310.83669     -15972.315     -11105.677      28988.914      29194.715     -91500.66      -136.73524     -148.953        137.87998      28.817858      24.956996      25.940995      18656.949    
       237   310.83669     -15972.442     -11026.554      28992.938      29198.748     -91271.349     -136.74208     -148.96069      137.88706      28.81857       24.957612      25.938378      18655.988    
       238   310.83669     -15972.569     -10947.761      28996.432      29202.252     -91041.967     -136.7489      -148.96835      137.89412      28.819283      24.95823       25.935761      18655.029    
       239   310.83669     -15972.696     -10869.295      28999.399      29205.23      -90812.514     -136.75571     -148.976        137.90117      28.819998      24.958849      25.933144      18654.073    
       240   310.83669     -15972.822     -10791.155      29001.84       29207.681     -90582.987     -136.7625      -148.98364      137.90821      28.820715      24.95947       25.930527      18653.118    
       241   310.83669     -15972.948     -10713.335      29003.761      29209.611     -90353.377     -136.76928     -148.99126      137.91523      28.821433      24.960092      25.927909      18652.165    
       242   310.83669     -15973.074     -10635.829      29005.166      29211.026     -90123.679     -136.77604     -148.99887      137.92224      28.822153      24.960716      25.925292      18651.215    
       243   310.83669     -15973.2       -10558.637      29006.058      29211.928     -89893.898     -136.78279     -149.00646      137.92923      28.822875      24.961341      25.922675      18650.266    
       244   310.83669     -15973.325     -10481.758      29006.441      29212.32      -89664.034     -136.78953     -149.01403      137.93621      28.823599      24.961967      25.920058      18649.319    
       245   310.83669     -15973.45      -10405.187      29006.315      29212.205     -89434.082     -136.79626     -149.02159      137.94317      28.824324      24.962595      25.917441      18648.375    
       246   310.83669     -15973.575     -10328.924      29005.684      29211.583     -89204.039     -136.80297     -149.02914      137.95012      28.825051      24.963225      25.914824      18647.432    
       247   310.83669     -15973.7       -10252.965      29004.55       29210.458     -88973.902     -136.80967     -149.03666      137.95706      28.825779      24.963856      25.912207      18646.491    
       248   310.83669     -15973.825     -10177.308      29002.914      29208.833     -88743.67      -136.81635     -149.04418      137.96398      28.826509      24.964488      25.909589      18645.552    
Loop time of 1.47426 on 1 procs for 100 steps with 2160 atoms

95.4% CPU use with 1 MPI tasks x 1 OpenMP threads

Minimization stats:
  Stopping criterion = max iterations
  Energy initial, next-to-last, final = 
     -15960.2905070873   -15973.700221789  -15973.8247504009
  Force two-norm initial, final = 1409.4652 1170.7737
  Force max component initial, final = 1364.2861 1101.6171
  Final line search alpha, max atom move = 9.0558e-08 9.9760244e-05
  Iterations, force evaluations = 100 100

MPI task timing breakdown:
Section |  min time  |  avg time  |  max time  |%varavg| %total
---------------------------------------------------------------
Pair    | 1.2378     | 1.2378     | 1.2378     |   0.0 | 83.96
Neigh   | 0          | 0          | 0          |   0.0 |  0.00
Comm    | 0.003078   | 0.003078   | 0.003078   |   0.0 |  0.21
Output  | 0.21653    | 0.21653    | 0.21653    |   0.0 | 14.69
Modify  | 0          | 0          | 0          |   0.0 |  0.00
Other   |            | 0.01688    |            |       |  1.15

Nlocal:           2160 ave        2160 max        2160 min
Histogram: 1 0 0 0 0 0 0 0 0 0
Nghost:           6452 ave        6452 max        6452 min
Histogram: 1 0 0 0 0 0 0 0 0 0
Neighs:              0 ave           0 max           0 min
Histogram: 1 0 0 0 0 0 0 0 0 0
FullNghs:       158976 ave      158976 max      158976 min
Histogram: 1 0 0 0 0 0 0 0 0 0

Total # of neighbors = 158976
Ave neighs/atom = 73.6
Neighbor list builds = 0
Dangerous builds = 0

variable tmp equal pxx
variable pxx0 equal ${tmp}
variable pxx0 equal 29002.9142219001
variable tmp equal pyy
variable pyy0 equal ${tmp}
variable pyy0 equal 29208.8326155298
variable tmp equal pzz
variable pzz0 equal ${tmp}
variable pzz0 equal -88743.6703949367
variable tmp equal pyz
variable pyz0 equal ${tmp}
variable pyz0 equal 137.963977044637
variable tmp equal pxz
variable pxz0 equal ${tmp}
variable pxz0 equal -149.044178868178
variable tmp equal pxy
variable pxy0 equal ${tmp}
variable pxy0 equal -136.816349334406

variable tmp equal lx
variable lx0 equal ${tmp}
variable lx0 equal 28.8265094337842
variable tmp equal ly
variable ly0 equal ${tmp}
variable ly0 equal 24.9644880256085
variable tmp equal lz
variable lz0 equal ${tmp}
variable lz0 equal 25.9095894650605

# These formulas define the derivatives w.r.t. strain components
# Constants uses $, variables use v_
variable d1 equal -(v_pxx1-${pxx0})/(v_delta/v_len0)*${cfac}
variable d1 equal -(v_pxx1-29002.9142219001)/(v_delta/v_len0)*${cfac}
variable d1 equal -(v_pxx1-29002.9142219001)/(v_delta/v_len0)*0.0001
variable d2 equal -(v_pyy1-${pyy0})/(v_delta/v_len0)*${cfac}
variable d2 equal -(v_pyy1-29208.8326155298)/(v_delta/v_len0)*${cfac}
variable d2 equal -(v_pyy1-29208.8326155298)/(v_delta/v_len0)*0.0001
variable d3 equal -(v_pzz1-${pzz0})/(v_delta/v_len0)*${cfac}
variable d3 equal -(v_pzz1--88743.6703949367)/(v_delta/v_len0)*${cfac}
variable d3 equal -(v_pzz1--88743.6703949367)/(v_delta/v_len0)*0.0001
variable d4 equal -(v_pyz1-${pyz0})/(v_delta/v_len0)*${cfac}
variable d4 equal -(v_pyz1-137.963977044637)/(v_delta/v_len0)*${cfac}
variable d4 equal -(v_pyz1-137.963977044637)/(v_delta/v_len0)*0.0001
variable d5 equal -(v_pxz1-${pxz0})/(v_delta/v_len0)*${cfac}
variable d5 equal -(v_pxz1--149.044178868178)/(v_delta/v_len0)*${cfac}
variable d5 equal -(v_pxz1--149.044178868178)/(v_delta/v_len0)*0.0001
variable d6 equal -(v_pxy1-${pxy0})/(v_delta/v_len0)*${cfac}
variable d6 equal -(v_pxy1--136.816349334406)/(v_delta/v_len0)*${cfac}
variable d6 equal -(v_pxy1--136.816349334406)/(v_delta/v_len0)*0.0001

displace_atoms all random ${atomjiggle} ${atomjiggle} ${atomjiggle} 87287 units box
displace_atoms all random 1e-05 ${atomjiggle} ${atomjiggle} 87287 units box
displace_atoms all random 1e-05 1e-05 ${atomjiggle} 87287 units box
displace_atoms all random 1e-05 1e-05 1e-05 87287 units box
Displacing atoms ...

# Write restart
unfix 3
write_restart restart.equil
System init for write_restart ...

# uxx Perturbation

variable dir equal 1
include displace.mod
# NOTE: This script should not need to be
# modified. See in.elastic for more info.
#
# Find which reference length to use

if "${dir} == 1" then    "variable len0 equal ${lx0}"
variable len0 equal ${lx0}
variable len0 equal 28.8265094337842
if "${dir} == 2" then    "variable len0 equal ${ly0}"
if "${dir} == 3" then    "variable len0 equal ${lz0}"
if "${dir} == 4" then    "variable len0 equal ${lz0}"
if "${dir} == 5" then    "variable len0 equal ${lz0}"
if "${dir} == 6" then    "variable len0 equal ${ly0}"

# Reset box and simulation parameters

clear
OMP_NUM_THREADS environment is not set. Defaulting to 1 thread. (src/comm.cpp:98)
  using 1 OpenMP thread(s) per MPI task
box tilt large
read_restart restart.equil
Reading restart file ...
  restart file = 24 Mar 2022, LAMMPS = 24 Mar 2022
  restoring atom style atomic from restart
  triclinic box = (0.0018292831 0.0015839872 0.16145927) to (28.828339 24.966072 26.071049) with tilt (-14.413255 0 0)
WARNING: Triclinic box skew is large (src/domain.cpp:228)
  1 by 1 by 1 MPI processor grid
  pair style hybrid/overlay stores no restart info
  2160 atoms
  read_restart CPU = 0.000 seconds
include potential.mod
# NOTE: This script can be modified for different pair styles
# See in.elastic for more info.

# Choose potential
pair_style hybrid/overlay eam/alloy edip/multi
pair_coeff * * eam/alloy Mishin-Ni-Al-2009.eam.alloy Al NULL
pair_coeff * * edip/multi NiAlO.edip Al O



# Setup neighbor style
neighbor 1.0 nsq
neigh_modify once no every 1 delay 0 check yes

# Setup minimization style
min_style	     cg
min_modify	     dmax ${dmax} line quadratic
min_modify	     dmax 0.01 line quadratic

# Setup output
thermo		1
thermo_style custom step temp pe press pxx pyy pzz pxy pxz pyz lx ly lz vol
thermo_modify norm no

# Negative deformation

variable delta equal -${up}*${len0}
variable delta equal -1e-06*${len0}
variable delta equal -1e-06*28.8265094337842
variable deltaxy equal -${up}*xy
variable deltaxy equal -1e-06*xy
variable deltaxz equal -${up}*xz
variable deltaxz equal -1e-06*xz
variable deltayz equal -${up}*yz
variable deltayz equal -1e-06*yz
if "${dir} == 1" then    "change_box all x delta 0 ${delta} xy delta ${deltaxy} xz delta ${deltaxz} remap units box"
change_box all x delta 0 ${delta} xy delta ${deltaxy} xz delta ${deltaxz} remap units box
change_box all x delta 0 -2.88265094337842e-05 xy delta ${deltaxy} xz delta ${deltaxz} remap units box
change_box all x delta 0 -2.88265094337842e-05 xy delta 1.44132549689941e-05 xz delta ${deltaxz} remap units box
change_box all x delta 0 -2.88265094337842e-05 xy delta 1.44132549689941e-05 xz delta -0 remap units box
Changing box ...
WARNING: Triclinic box skew is large (src/domain.cpp:228)
  triclinic box = (0.0018292831 0.0015839872 0.16145927) to (28.82831 24.966072 26.071049) with tilt (-14.413255 0 0)
WARNING: Triclinic box skew is large (src/domain.cpp:228)
  triclinic box = (0.0018292831 0.0015839872 0.16145927) to (28.82831 24.966072 26.071049) with tilt (-14.413241 0 0)
WARNING: Triclinic box skew is large (src/domain.cpp:228)
  triclinic box = (0.0018292831 0.0015839872 0.16145927) to (28.82831 24.966072 26.071049) with tilt (-14.413241 0 0)
if "${dir} == 2" then    "change_box all y delta 0 ${delta} yz delta ${deltayz} remap units box"
if "${dir} == 3" then    "change_box all z delta 0 ${delta} remap units box"
if "${dir} == 4" then    "change_box all yz delta ${delta} remap units box"
if "${dir} == 5" then    "change_box all xz delta ${delta} remap units box"
if "${dir} == 6" then    "change_box all xy delta ${delta} remap units box"

# Relax atoms positions

minimize ${etol} ${ftol} ${maxiter} ${maxeval}
minimize 0 ${ftol} ${maxiter} ${maxeval}
minimize 0 1e-10 ${maxiter} ${maxeval}
minimize 0 1e-10 100 ${maxeval}
minimize 0 1e-10 100 1000
Neighbor list info ...
  update every 1 steps, delay 0 steps, check yes
  max neighbors/atom: 2000, page size: 100000
  master list distance cutoff = 7.28721
  ghost atom cutoff = 7.28721
  3 neighbor lists, perpetual/occasional/extra = 3 0 0
  (1) pair eam/alloy, perpetual, skip from (3)
      attributes: half, newton on
      pair build: skip
      stencil: none
      bin: none
  (2) pair edip/multi, perpetual
      attributes: full, newton on
      pair build: full/nsq
      stencil: none
      bin: none
  (3) neighbor class addition, perpetual, half/full from (2)
      attributes: half, newton on
      pair build: halffull/newton
      stencil: none
      bin: none
Per MPI rank memory allocation (min/avg/max) = 6.235 | 6.235 | 6.235 Mbytes
   Step          Temp          PotEng         Press           Pxx            Pyy            Pzz            Pxy            Pxz            Pyz             Lx             Ly             Lz           Volume    
       248   310.83669     -15973.824     -10173.075      29009.917      29212.08      -88741.223     -136.31881     -148.66063      138.18035      28.826481      24.964488      25.909589      18645.534    
       249   310.83669     -15974.365     -11666.502      30919.839      31122.131     -97041.477     -136.57943     -148.7902       137.87476      28.826481      24.964488      25.909589      18645.534    
       250   310.83669     -15974.553     -7858.1635      36903.102      37106.991     -97584.584     -137.33097     -149.51608      136.95945      28.826481      24.964488      25.909589      18645.534    
       251   310.83669     -15974.553     -7846.2777      36891.699      37095.179     -97525.711     -137.12682     -149.31112      137.13766      28.826481      24.964488      25.909589      18645.534    
       252   310.83669     -15974.553     -7857.4773      36874.435      37076.835     -97523.701     -136.49681     -148.90892      137.8131       28.826481      24.964488      25.909589      18645.534    
       253   310.83669     -15974.553     -7861.8361      36867.862      37070.063     -97523.434     -136.57102     -148.85173      137.65739      28.826481      24.964488      25.909589      18645.534    
       254   310.83669     -15974.553     -7863.2083      36865.044      37067.763     -97522.431     -136.76205     -149.01141      137.5484       28.826481      24.964488      25.909589      18645.534    
       255   310.83669     -15974.553     -7863.4546      36864.629      37067.492     -97522.485     -136.8312      -149.04583      137.47942      28.826481      24.964488      25.909589      18645.534    
       256   310.83669     -15974.553     -7863.4797      36864.58       37067.463     -97522.482     -136.82913     -149.05711      137.4821       28.826481      24.964488      25.909589      18645.534    
       257   310.83669     -15974.553     -7863.4842      36864.578      37067.434     -97522.464     -136.82627     -149.05324      137.46768      28.826481      24.964488      25.909589      18645.534    
       258   310.83669     -15974.553     -7863.4873      36864.577      37067.441     -97522.479     -136.81925     -149.05508      137.4719       28.826481      24.964488      25.909589      18645.534    
       259   310.83669     -15974.553     -7863.4774      36864.595      37067.444     -97522.471     -136.82284     -149.04999      137.45164      28.826481      24.964488      25.909589      18645.534    
       260   310.83669     -15974.553     -7863.4725      36864.593      37067.463     -97522.473     -136.82258     -149.05382      137.45875      28.826481      24.964488      25.909589      18645.534    
       261   310.83669     -15974.553     -7863.4719      36864.599      37067.466     -97522.48      -136.82618     -149.04752      137.45592      28.826481      24.964488      25.909589      18645.534    
       262   310.83669     -15974.553     -7863.4702      36864.596      37067.466     -97522.473     -136.82281     -149.04733      137.46539      28.826481      24.964488      25.909589      18645.534    
       263   310.83669     -15974.553     -7863.4726      36864.602      37067.456     -97522.476     -136.8226      -149.04153      137.46231      28.826481      24.964488      25.909589      18645.534    
       264   310.83669     -15974.553     -7863.4754      36864.594      37067.457     -97522.477     -136.8196      -149.04451      137.47175      28.826481      24.964488      25.909589      18645.534    
       265   310.83669     -15974.553     -7863.4752      36864.593      37067.452     -97522.471     -136.82393     -149.04521      137.46266      28.826481      24.964488      25.909589      18645.534    
       266   310.83669     -15974.553     -7863.4765      36864.589      37067.457     -97522.476     -136.82365     -149.04948      137.46517      28.826481      24.964488      25.909589      18645.534    
       267   310.83669     -15974.553     -7863.4757      36864.593      37067.456     -97522.475     -136.82424     -149.04834      137.46174      28.826481      24.964488      25.909589      18645.534    
       268   310.83669     -15974.553     -7863.4734      36864.594      37067.458     -97522.473     -136.82217     -149.0492       137.46535      28.826481      24.964488      25.909589      18645.534    
       269   310.83669     -15974.553     -7863.4733      36864.599      37067.459     -97522.478     -136.82313     -149.04776      137.46296      28.826481      24.964488      25.909589      18645.534    
       270   310.83669     -15974.553     -7863.4722      36864.597      37067.462     -97522.476     -136.82318     -149.04896      137.46563      28.826481      24.964488      25.909589      18645.534    
       271   310.83669     -15974.553     -7863.4722      36864.597      37067.461     -97522.474     -136.82393     -149.04816      137.46404      28.826481      24.964488      25.909589      18645.534    
       272   310.83669     -15974.553     -7863.4741      36864.595      37067.46      -97522.477     -136.82308     -149.04852      137.46543      28.826481      24.964488      25.909589      18645.534    
       273   310.83669     -15974.553     -7863.4744      36864.594      37067.456     -97522.474     -136.82318     -149.04764      137.46381      28.826481      24.964488      25.909589      18645.534    
       274   310.83669     -15974.553     -7863.4753      36864.592      37067.456     -97522.474     -136.82282     -149.04829      137.46466      28.826481      24.964488      25.909589      18645.534    
       275   310.83669     -15974.553     -7863.4758      36864.593      37067.456     -97522.476     -136.82342     -149.04799      137.46333      28.826481      24.964488      25.909589      18645.534    
       276   310.83669     -15974.553     -7863.4746      36864.593      37067.457     -97522.474     -136.82338     -149.04823      137.4641       28.826481      24.964488      25.909589      18645.534    
       277   310.83669     -15974.553     -7863.4741      36864.595      37067.458     -97522.475     -136.82339     -149.04771      137.46392      28.826481      24.964488      25.909589      18645.534    
       278   310.83669     -15974.553     -7863.4735      36864.596      37067.46      -97522.476     -136.8229      -149.04764      137.46479      28.826481      24.964488      25.909589      18645.534    
       279   310.83669     -15974.553     -7863.4726      36864.597      37067.46      -97522.474     -136.82304     -149.04759      137.46441      28.826481      24.964488      25.909589      18645.534    
       280   310.83669     -15974.553     -7863.4732      36864.596      37067.46      -97522.476     -136.82327     -149.04807      137.46434      28.826481      24.964488      25.909589      18645.534    
       281   310.83669     -15974.553     -7863.4737      36864.595      37067.459     -97522.475     -136.82346     -149.04822      137.46393      28.826481      24.964488      25.909589      18645.534    
       282   310.83669     -15974.553     -7863.474       36864.594      37067.458     -97522.474     -136.82327     -149.04827      137.46412      28.826481      24.964488      25.909589      18645.534    
       283   310.83669     -15974.553     -7863.475       36864.593      37067.457     -97522.475     -136.82314     -149.04813      137.46426      28.826481      24.964488      25.909589      18645.534    
       284   310.83669     -15974.553     -7863.475       36864.593      37067.457     -97522.475     -136.82318     -149.04814      137.46441      28.826481      24.964488      25.909589      18645.534    
       285   310.83669     -15974.553     -7863.4746      36864.593      37067.457     -97522.474     -136.82335     -149.04815      137.46434      28.826481      24.964488      25.909589      18645.534    
       286   310.83669     -15974.553     -7863.4743      36864.594      37067.458     -97522.476     -136.82334     -149.04815      137.46439      28.826481      24.964488      25.909589      18645.534    
       287   310.83669     -15974.553     -7863.4735      36864.595      37067.459     -97522.475     -136.82324     -149.04808      137.46433      28.826481      24.964488      25.909589      18645.534    
       288   310.83669     -15974.553     -7863.4732      36864.596      37067.459     -97522.475     -136.82317     -149.04807      137.46426      28.826481      24.964488      25.909589      18645.534    
       289   310.83669     -15974.553     -7863.4734      36864.596      37067.459     -97522.476     -136.82323     -149.04809      137.46416      28.826481      24.964488      25.909589      18645.534    
       290   310.83669     -15974.553     -7863.4736      36864.595      37067.459     -97522.475     -136.82329     -149.04811      137.46414      28.826481      24.964488      25.909589      18645.534    
       291   310.83669     -15974.553     -7863.4741      36864.595      37067.458     -97522.475     -136.8233      -149.04806      137.46417      28.826481      24.964488      25.909589      18645.534    
       292   310.83669     -15974.553     -7863.4744      36864.594      37067.458     -97522.475     -136.82324     -149.048        137.46428      28.826481      24.964488      25.909589      18645.534    
       293   310.83669     -15974.553     -7863.4744      36864.594      37067.458     -97522.475     -136.82319     -149.04797      137.46432      28.826481      24.964488      25.909589      18645.534    
       294   310.83669     -15974.553     -7863.4744      36864.594      37067.458     -97522.475     -136.82322     -149.04802      137.46426      28.826481      24.964488      25.909589      18645.534    
       295   310.83669     -15974.553     -7863.4742      36864.594      37067.458     -97522.475     -136.82328     -149.04809      137.4642       28.826481      24.964488      25.909589      18645.534    
       296   310.83669     -15974.553     -7863.4739      36864.595      37067.458     -97522.475     -136.82328     -149.04811      137.46419      28.826481      24.964488      25.909589      18645.534    
       297   310.83669     -15974.553     -7863.4738      36864.595      37067.459     -97522.475     -136.82325     -149.04809      137.46423      28.826481      24.964488      25.909589      18645.534    
       298   310.83669     -15974.553     -7863.4738      36864.595      37067.459     -97522.475     -136.82323     -149.04807      137.46426      28.826481      24.964488      25.909589      18645.534    
       299   310.83669     -15974.553     -7863.4739      36864.595      37067.459     -97522.475     -136.82325     -149.04808      137.46427      28.826481      24.964488      25.909589      18645.534    
       300   310.83669     -15974.553     -7863.474       36864.595      37067.458     -97522.475     -136.82327     -149.04809      137.46426      28.826481      24.964488      25.909589      18645.534    
       301   310.83669     -15974.553     -7863.4741      36864.595      37067.458     -97522.475     -136.82326     -149.04808      137.46425      28.826481      24.964488      25.909589      18645.534    
       302   310.83669     -15974.553     -7863.4741      36864.594      37067.458     -97522.475     -136.82325     -149.04808      137.46425      28.826481      24.964488      25.909589      18645.534    
[...]
       309   310.83669     -15974.553     -7867.1231      36858.949      37064.896     -97525.214     -138.36461     -148.55834      137.95368      28.826509      24.964488      25.909589      18645.552    
       310   310.83669     -15974.553     -7867.1232      36858.949      37064.896     -97525.214     -138.36462     -148.55834      137.9537       28.826509      24.964488      25.909589      18645.552    
       311   310.83669     -15974.553     -7867.1232      36858.949      37064.896     -97525.214     -138.36462     -148.55834      137.95368      28.826509      24.964488      25.909589      18645.552    
       312   310.83669     -15974.553     -7867.1232      36858.949      37064.896     -97525.214     -138.36462     -148.55834      137.9537       28.826509      24.964488      25.909589      18645.552    
       313   310.83669     -15974.553     -7867.1232      36858.949      37064.896     -97525.214     -138.36462     -148.55835      137.95369      28.826509      24.964488      25.909589      18645.552    
       314   310.83669     -15974.553     -7867.1232      36858.949      37064.896     -97525.214     -138.36462     -148.55835      137.9537       28.826509      24.964488      25.909589      18645.552    
       315   310.83669     -15974.553     -7867.1232      36858.949      37064.896     -97525.214     -138.36462     -148.55835      137.95369      28.826509      24.964488      25.909589      18645.552    
       316   310.83669     -15974.553     -7867.1231      36858.949      37064.896     -97525.214     -138.36462     -148.55835      137.9537       28.826509      24.964488      25.909589      18645.552    
       317   310.83669     -15974.553     -7867.1231      36858.949      37064.896     -97525.214     -138.36462     -148.55835      137.95369      28.826509      24.964488      25.909589      18645.552    
       318   310.83669     -15974.553     -7867.1232      36858.949      37064.896     -97525.214     -138.36462     -148.55834      137.95369      28.826509      24.964488      25.909589      18645.552    
       319   310.83669     -15974.553     -7867.1232      36858.949      37064.896     -97525.214     -138.36462     -148.55834      137.95369      28.826509      24.964488      25.909589      18645.552    
       320   310.83669     -15974.553     -7867.1232      36858.949      37064.896     -97525.214     -138.36462     -148.55834      137.95369      28.826509      24.964488      25.909589      18645.552    
       321   310.83669     -15974.553     -7867.1232      36858.949      37064.896     -97525.214     -138.36462     -148.55834      137.95369      28.826509      24.964488      25.909589      18645.552    
       322   310.83669     -15974.553     -7867.1232      36858.949      37064.896     -97525.214     -138.36462     -148.55834      137.95369      28.826509      24.964488      25.909589      18645.552    
       323   310.83669     -15974.553     -7867.1232      36858.949      37064.896     -97525.214     -138.36462     -148.55834      137.95369      28.826509      24.964488      25.909589      18645.552    
       324   310.83669     -15974.553     -7867.1232      36858.949      37064.896     -97525.214     -138.36462     -148.55834      137.95369      28.826509      24.964488      25.909589      18645.552    
       325   310.83669     -15974.553     -7867.1232      36858.949      37064.896     -97525.214     -138.36462     -148.55834      137.95369      28.826509      24.964488      25.909589      18645.552    
       326   310.83669     -15974.553     -7867.1232      36858.949      37064.896     -97525.214     -138.36462     -148.55834      137.95369      28.826509      24.964488      25.909589      18645.552    
       327   310.83669     -15974.553     -7867.1232      36858.949      37064.896     -97525.214     -138.36462     -148.55834      137.95369      28.826509      24.964488      25.909589      18645.552    
       328   310.83669     -15974.553     -7867.1232      36858.949      37064.896     -97525.214     -138.36462     -148.55834      137.95369      28.826509      24.964488      25.909589      18645.552    
       329   310.83669     -15974.553     -7867.1232      36858.949      37064.896     -97525.214     -138.36462     -148.55834      137.95369      28.826509      24.964488      25.909589      18645.552    
       330   310.83669     -15974.553     -7867.1232      36858.949      37064.896     -97525.214     -138.36462     -148.55834      137.95369      28.826509      24.964488      25.909589      18645.552    
       331   310.83669     -15974.553     -7867.1232      36858.949      37064.896     -97525.214     -138.36462     -148.55834      137.95369      28.826509      24.964488      25.909589      18645.552    
       332   310.83669     -15974.553     -7867.1232      36858.949      37064.896     -97525.214     -138.36462     -148.55834      137.95369      28.826509      24.964488      25.909589      18645.552    
       333   310.83669     -15974.553     -7867.1232      36858.949      37064.896     -97525.214     -138.36462     -148.55834      137.95369      28.826509      24.964488      25.909589      18645.552    
       334   310.83669     -15974.553     -7867.1232      36858.949      37064.896     -97525.214     -138.36462     -148.55834      137.95369      28.826509      24.964488      25.909589      18645.552    
       335   310.83669     -15974.553     -7867.1232      36858.949      37064.896     -97525.214     -138.36462     -148.55834      137.95369      28.826509      24.964488      25.909589      18645.552    
       336   310.83669     -15974.553     -7867.1232      36858.949      37064.896     -97525.214     -138.36462     -148.55834      137.95369      28.826509      24.964488      25.909589      18645.552    
       337   310.83669     -15974.553     -7867.1232      36858.949      37064.896     -97525.214     -138.36462     -148.55834      137.95369      28.826509      24.964488      25.909589      18645.552    
       338   310.83669     -15974.553     -7867.1232      36858.949      37064.896     -97525.214     -138.36462     -148.55834      137.95369      28.826509      24.964488      25.909589      18645.552    
       339   310.83669     -15974.553     -7867.1232      36858.949      37064.896     -97525.214     -138.36462     -148.55834      137.95369      28.826509      24.964488      25.909589      18645.552    
       340   310.83669     -15974.553     -7867.1232      36858.949      37064.896     -97525.214     -138.36462     -148.55834      137.95369      28.826509      24.964488      25.909589      18645.552    
       341   310.83669     -15974.553     -7867.1232      36858.949      37064.896     -97525.214     -138.36462     -148.55834      137.95369      28.826509      24.964488      25.909589      18645.552    
       342   310.83669     -15974.553     -7867.1232      36858.949      37064.896     -97525.214     -138.36462     -148.55834      137.95369      28.826509      24.964488      25.909589      18645.552    
       343   310.83669     -15974.553     -7867.1232      36858.949      37064.896     -97525.214     -138.36462     -148.55834      137.95369      28.826509      24.964488      25.909589      18645.552    
       344   310.83669     -15974.553     -7867.1232      36858.949      37064.896     -97525.214     -138.36462     -148.55834      137.95369      28.826509      24.964488      25.909589      18645.552    
       345   310.83669     -15974.553     -7867.1232      36858.949      37064.896     -97525.214     -138.36462     -148.55834      137.95369      28.826509      24.964488      25.909589      18645.552    
       346   310.83669     -15974.553     -7867.1232      36858.949      37064.896     -97525.214     -138.36462     -148.55834      137.95369      28.826509      24.964488      25.909589      18645.552    
       347   310.83669     -15974.553     -7867.1232      36858.949      37064.896     -97525.214     -138.36462     -148.55834      137.95369      28.826509      24.964488      25.909589      18645.552    
       348   310.83669     -15974.553     -7867.1232      36858.949      37064.896     -97525.214     -138.36462     -148.55834      137.95369      28.826509      24.964488      25.909589      18645.552    
Loop time of 2.54114 on 1 procs for 100 steps with 2160 atoms

100.0% CPU use with 1 MPI tasks x 1 OpenMP threads

Minimization stats:
  Stopping criterion = max iterations
  Energy initial, next-to-last, final = 
     -15973.8247471309  -15974.5533460857  -15974.5533460858
  Force two-norm initial, final = 6.5444646 5.8826705e-10
  Force max component initial, final = 0.20844227 2.7635616e-11
  Final line search alpha, max atom move = 1 2.7635616e-11
  Iterations, force evaluations = 100 200

MPI task timing breakdown:
Section |  min time  |  avg time  |  max time  |%varavg| %total
---------------------------------------------------------------
Pair    | 2.5207     | 2.5207     | 2.5207     |   0.0 | 99.20
Neigh   | 0          | 0          | 0          |   0.0 |  0.00
Comm    | 0.0059816  | 0.0059816  | 0.0059816  |   0.0 |  0.24
Output  | 0.0043714  | 0.0043714  | 0.0043714  |   0.0 |  0.17
Modify  | 0          | 0          | 0          |   0.0 |  0.00
Other   |            | 0.01006    |            |       |  0.40

Nlocal:           2160 ave        2160 max        2160 min
Histogram: 1 0 0 0 0 0 0 0 0 0
Nghost:           6452 ave        6452 max        6452 min
Histogram: 1 0 0 0 0 0 0 0 0 0
Neighs:              0 ave           0 max           0 min
Histogram: 1 0 0 0 0 0 0 0 0 0
FullNghs:       158976 ave      158976 max      158976 min
Histogram: 1 0 0 0 0 0 0 0 0 0

Total # of neighbors = 158976
Ave neighs/atom = 73.6
Neighbor list builds = 0
Dangerous builds = 0

# Obtain new stress tensor

variable tmp equal pe
variable e1 equal ${tmp}
variable e1 equal -15974.5533460858
variable tmp equal press
variable p1 equal ${tmp}
variable p1 equal -7867.12316414659
variable tmp equal pxx
variable pxx1 equal ${tmp}
variable pxx1 equal 36858.9491030328
variable tmp equal pyy
variable pyy1 equal ${tmp}
variable pyy1 equal 37064.8956164616
variable tmp equal pzz
variable pzz1 equal ${tmp}
variable pzz1 equal -97525.2142119342
variable tmp equal pxy
variable pxy1 equal ${tmp}
variable pxy1 equal -138.364616975171
variable tmp equal pxz
variable pxz1 equal ${tmp}
variable pxz1 equal -148.558343697678
variable tmp equal pyz
variable pyz1 equal ${tmp}
variable pyz1 equal 137.953693005787

# Compute elastic constant from pressure tensor

variable C1pos equal ${d1}
variable C1pos equal -785603.48811327
variable C2pos equal ${d2}
variable C2pos equal -785606.30009318
variable C3pos equal ${d3}
variable C3pos equal 878154.381699751
variable C4pos equal ${d4}
variable C4pos equal 1.02840388500169
variable C5pos equal ${d5}
variable C5pos equal -48.5835170499996
variable C6pos equal ${d6}
variable C6pos equal 154.8267640765

# Combine positive and negative

variable C1${dir} equal 0.5*(${C1neg}+${C1pos})
variable C16 equal 0.5*(${C1neg}+${C1pos})
variable C16 equal 0.5*(785603.48810295+${C1pos})
variable C16 equal 0.5*(785603.48810295+-785603.48811327)
variable C2${dir} equal 0.5*(${C2neg}+${C2pos})
variable C26 equal 0.5*(${C2neg}+${C2pos})
variable C26 equal 0.5*(785606.30010146+${C2pos})
variable C26 equal 0.5*(785606.30010146+-785606.30009318)
variable C3${dir} equal 0.5*(${C3neg}+${C3pos})
variable C36 equal 0.5*(${C3neg}+${C3pos})
variable C36 equal 0.5*(-878154.3816895+${C3pos})
variable C36 equal 0.5*(-878154.3816895+878154.381699751)
variable C4${dir} equal 0.5*(${C4neg}+${C4pos})
variable C46 equal 0.5*(${C4neg}+${C4pos})
variable C46 equal 0.5*(-1.02839847839959+${C4pos})
variable C46 equal 0.5*(-1.02839847839959+1.02840388500169)
variable C5${dir} equal 0.5*(${C5neg}+${C5pos})
variable C56 equal 0.5*(${C5neg}+${C5pos})
variable C56 equal 0.5*(-49.3327180064+${C5pos})
variable C56 equal 0.5*(-49.3327180064+-48.5835170499996)
variable C6${dir} equal 0.5*(${C6neg}+${C6pos})
variable C66 equal 0.5*(${C6neg}+${C6pos})
variable C66 equal 0.5*(153.473362432101+${C6pos})
variable C66 equal 0.5*(153.473362432101+154.8267640765)

# Delete dir to make sure it is not reused

variable dir delete

# Output final values

variable C11all equal ${C11}
variable C11all equal 564.550942695001
variable C22all equal ${C22}
variable C22all equal 564.571523324994
variable C33all equal ${C33}
variable C33all equal 283.248979139491

variable C12all equal 0.5*(${C12}+${C21})
variable C12all equal 0.5*(256.250845069997+${C21})
variable C12all equal 0.5*(256.250845069997+256.271439045027)
variable C13all equal 0.5*(${C13}+${C31})
variable C13all equal 0.5*(287.357109150034+${C31})
variable C13all equal 0.5*(287.357109150034+273.918693279498)
variable C23all equal 0.5*(${C23}+${C32})
variable C23all equal 0.5*(287.37776366499+${C32})
variable C23all equal 0.5*(287.37776366499+273.918752294965)

variable C44all equal ${C44}
variable C44all equal 72.9944705261503
variable C55all equal ${C55}
variable C55all equal 72.9944436021
variable C66all equal ${C66}
variable C66all equal 154.150063254301

variable C14all equal 0.5*(${C14}+${C41})
variable C14all equal 0.5*(-48.9580651900033+${C41})
variable C14all equal 0.5*(-48.9580651900033+-48.9442723942005)
variable C15all equal 0.5*(${C15}+${C51})
variable C15all equal 0.5*(9.34989657253027e-07+${C51})
variable C15all equal 0.5*(9.34989657253027e-07+-0.014904192050835)
variable C16all equal 0.5*(${C16}+${C61})
variable C16all equal 0.5*(-5.15999272465706e-06+${C61})
variable C16all equal 0.5*(-5.15999272465706e-06+-0.0136857465989235)

variable C24all equal 0.5*(${C24}+${C42})
variable C24all equal 0.5*(48.9581011600094+${C42})
variable C24all equal 0.5*(48.9581011600094+48.9719008771501)
variable C25all equal 0.5*(${C25}+${C52})
variable C25all equal 0.5*(-7.24499113857746e-06+${C52})
variable C25all equal 0.5*(-7.24499113857746e-06+-0.014912088900587)
variable C26all equal 0.5*(${C26}+${C62})
variable C26all equal 0.5*(4.13996167480946e-06+${C62})
variable C26all equal 0.5*(4.13996167480946e-06+-0.0136800601495675)

variable C34all equal 0.5*(${C34}+${C43})
variable C34all equal 0.5*(-2.69595184363425e-05+${C43})
variable C34all equal 0.5*(-2.69595184363425e-05+0.013766248500245)
variable C35all equal 0.5*(${C35}+${C53})
variable C35all equal 0.5*(4.85003693029284e-06+${C53})
variable C35all equal 0.5*(4.85003693029284e-06+-0.014899737750795)
variable C36all equal 0.5*(${C36}+${C63})
variable C36all equal 0.5*(5.12553378939629e-06+${C63})
variable C36all equal 0.5*(5.12553378939629e-06+-0.0136770832497745)

variable C45all equal 0.5*(${C45}+${C54})
variable C45all equal 0.5*(1.87784934002622e-06+${C54})
variable C45all equal 0.5*(1.87784934002622e-06+2.32454908649649e-06)
variable C46all equal 0.5*(${C46}+${C64})
variable C46all equal 0.5*(2.70330105001104e-06+${C64})
variable C46all equal 0.5*(2.70330105001104e-06+2.50630023401754e-06)
variable C56all equal 0.5*(${C56}+${C65})
variable C56all equal 0.5*(-48.9581175281998+${C65})
variable C56all equal 0.5*(-48.9581175281998+-48.9581178409992)

# Average moduli for cubic crystals

variable C11cubic equal (${C11all}+${C22all}+${C33all})/3.0
variable C11cubic equal (564.550942695001+${C22all}+${C33all})/3.0
variable C11cubic equal (564.550942695001+564.571523324994+${C33all})/3.0
variable C11cubic equal (564.550942695001+564.571523324994+283.248979139491)/3.0
variable C12cubic equal (${C12all}+${C13all}+${C23all})/3.0
variable C12cubic equal (256.261142057512+${C13all}+${C23all})/3.0
variable C12cubic equal (256.261142057512+280.637901214766+${C23all})/3.0
variable C12cubic equal (256.261142057512+280.637901214766+280.648257979978)/3.0
variable C44cubic equal (${C44all}+${C55all}+${C66all})/3.0
variable C44cubic equal (72.9944705261503+${C55all}+${C66all})/3.0
variable C44cubic equal (72.9944705261503+72.9944436021+${C66all})/3.0
variable C44cubic equal (72.9944705261503+72.9944436021+154.150063254301)/3.0

variable bulkmodulus equal (${C11cubic}+2*${C12cubic})/3.0
variable bulkmodulus equal (470.790481719829+2*${C12cubic})/3.0
variable bulkmodulus equal (470.790481719829+2*272.515767084085)/3.0
variable shearmodulus1 equal ${C44cubic}
variable shearmodulus1 equal 100.046325794184
variable shearmodulus2 equal (${C11cubic}-${C12cubic})/2.0
variable shearmodulus2 equal (470.790481719829-${C12cubic})/2.0
variable shearmodulus2 equal (470.790481719829-272.515767084085)/2.0
variable poissonratio equal 1.0/(1.0+${C11cubic}/${C12cubic})
variable poissonratio equal 1.0/(1.0+470.790481719829/${C12cubic})
variable poissonratio equal 1.0/(1.0+470.790481719829/272.515767084085)

# For Stillinger-Weber silicon, the analytical results
# are known to be (E. R. Cowley, 1988):
#               C11 = 151.4 GPa
#               C12 = 76.4 GPa
#               C44 = 56.4 GPa

print "========================================="
=========================================
print "Components of the Elastic Constant Tensor"
Components of the Elastic Constant Tensor
print "========================================="
=========================================

print "Elastic Constant C11all = ${C11all} ${cunits}"
Elastic Constant C11all = 564.550942695001 GPa
print "Elastic Constant C22all = ${C22all} ${cunits}"
Elastic Constant C22all = 564.571523324994 GPa
print "Elastic Constant C33all = ${C33all} ${cunits}"
Elastic Constant C33all = 283.248979139491 GPa

print "Elastic Constant C12all = ${C12all} ${cunits}"
Elastic Constant C12all = 256.261142057512 GPa
print "Elastic Constant C13all = ${C13all} ${cunits}"
Elastic Constant C13all = 280.637901214766 GPa
print "Elastic Constant C23all = ${C23all} ${cunits}"
Elastic Constant C23all = 280.648257979978 GPa

print "Elastic Constant C44all = ${C44all} ${cunits}"
Elastic Constant C44all = 72.9944705261503 GPa
print "Elastic Constant C55all = ${C55all} ${cunits}"
Elastic Constant C55all = 72.9944436021 GPa
print "Elastic Constant C66all = ${C66all} ${cunits}"
Elastic Constant C66all = 154.150063254301 GPa

print "Elastic Constant C14all = ${C14all} ${cunits}"
Elastic Constant C14all = -48.9511687921019 GPa
print "Elastic Constant C15all = ${C15all} ${cunits}"
Elastic Constant C15all = -0.00745162853058887 GPa
print "Elastic Constant C16all = ${C16all} ${cunits}"
Elastic Constant C16all = -0.00684545329582408 GPa

print "Elastic Constant C24all = ${C24all} ${cunits}"
Elastic Constant C24all = 48.9650010185797 GPa
print "Elastic Constant C25all = ${C25all} ${cunits}"
Elastic Constant C25all = -0.00745966694586279 GPa
print "Elastic Constant C26all = ${C26all} ${cunits}"
Elastic Constant C26all = -0.00683796009394635 GPa

print "Elastic Constant C34all = ${C34all} ${cunits}"
Elastic Constant C34all = 0.00686964449090433 GPa
print "Elastic Constant C35all = ${C35all} ${cunits}"
Elastic Constant C35all = -0.00744744385693235 GPa
print "Elastic Constant C36all = ${C36all} ${cunits}"
Elastic Constant C36all = -0.00683597885799255 GPa

print "Elastic Constant C45all = ${C45all} ${cunits}"
Elastic Constant C45all = 2.10119921326135e-06 GPa
print "Elastic Constant C46all = ${C46all} ${cunits}"
Elastic Constant C46all = 2.60480064201429e-06 GPa
print "Elastic Constant C56all = ${C56all} ${cunits}"
Elastic Constant C56all = -48.9581176845995 GPa

print "========================================="
=========================================
print "Average properties for a cubic crystal"
Average properties for a cubic crystal
print "========================================="
=========================================

print "Bulk Modulus = ${bulkmodulus} ${cunits}"
Bulk Modulus = 338.607338629333 GPa
print "Shear Modulus 1 = ${shearmodulus1} ${cunits}"
Shear Modulus 1 = 100.046325794184 GPa
print "Shear Modulus 2 = ${shearmodulus2} ${cunits}"
Shear Modulus 2 = 99.137357317872 GPa
print "Poisson Ratio = ${poissonratio}"
Poisson Ratio = 0.366626498193176
Total wall time: 0:00:37
