LAMMPS (29 Sep 2021)
  using 1 OpenMP thread(s) per MPI task
Reading data file ...
  orthogonal box = (-0.51462936 -0.51941335 0.0000000) to (101.83843 101.84322 530.60000)
  2 by 2 by 6 MPI processor grid
  reading atoms ...
  425652 atoms
  reading velocities ...
  425652 velocities
  read_data CPU = 4.373 seconds
212828 atoms in group g_left
212824 atoms in group g_right

CITE-CITE-CITE-CITE-CITE-CITE-CITE-CITE-CITE-CITE-CITE-CITE-CITE

Your simulation uses code contributions which should be cited:
- GPU package (short-range, long-range and three-body potentials):
The log file lists these citations in BibTeX format.

CITE-CITE-CITE-CITE-CITE-CITE-CITE-CITE-CITE-CITE-CITE-CITE-CITE


--------------------------------------------------------------------------
- Using acceleration for eam/alloy:
-  with 12 proc(s) per device.
-  Horizontal vector operations: ENABLED
-  Shared memory system: No
--------------------------------------------------------------------------
Device 0: Tesla V100-SXM2-32GB, 80 CUs, 28/32 GB, 1.5 GHZ (Mixed Precision)
Device 1: Tesla V100-SXM2-32GB, 80 CUs, 1.5 GHZ (Mixed Precision)
--------------------------------------------------------------------------

Initializing Device and compiling on process 0...Done.
Initializing Devices 0-1 on core 0...Done.
Initializing Devices 0-1 on core 1...Done.
Initializing Devices 0-1 on core 2...Done.
Initializing Devices 0-1 on core 3...Done.
Initializing Devices 0-1 on core 4...Done.
Initializing Devices 0-1 on core 5...Done.
Initializing Devices 0-1 on core 6...Done.
Initializing Devices 0-1 on core 7...Done.
Initializing Devices 0-1 on core 8...Done.
Initializing Devices 0-1 on core 9...Done.
Initializing Devices 0-1 on core 10...Done.
Initializing Devices 0-1 on core 11...Done.

Setting up Verlet run ...
  Unit style    : metal
  Current step  : 0
  Time step     : 0.00025
Per MPI rank memory allocation (min/avg/max) = 8.288 | 10.15 | 11.09 Mbytes
Step Time Temp Press PotEng KinEng TotEng Volume 
       0            0    18714.094    194678.77   -1767702.2      1029644   -738058.22    5559164.7 
     100        0.025    18712.618     195165.1   -1767721.6    1029562.8   -738158.81      5543449 
     200         0.05     18712.41    195712.56   -1767711.9    1029551.4   -738160.47    5527733.3 
     300        0.075    18712.883    196254.18   -1767723.3    1029577.4    -738145.9    5512017.6 
     400          0.1    18711.773    196797.59   -1767701.4    1029516.3   -738185.11    5496301.9 
     500        0.125    18711.429    197373.74   -1767708.9    1029497.4   -738211.48    5480586.2 
     600         0.15    18712.822     197976.8   -1767737.6      1029574   -738163.55    5464870.5 
     700        0.175    18712.746    198589.64   -1767700.7    1029569.9   -738130.79    5449154.8 
     800          0.2    18712.393    199154.08   -1767716.6    1029550.5   -738166.19    5433439.1 
     900        0.225    18711.532    199733.76   -1767706.9    1029503.1   -738203.81    5417723.4 
    1000         0.25    18711.855    200321.14   -1767698.3    1029520.9   -738177.47    5402007.8 
    1100        0.275    18712.953    200896.28     -1767738    1029581.3   -738156.74    5386292.1 
    1200          0.3    18712.465    201487.85   -1767714.3    1029554.4   -738159.86    5370576.4 
    1300        0.325    18712.704    202070.53   -1767728.6    1029567.5   -738161.06    5354860.7 
    1400         0.35     18712.48    202677.99   -1767699.9    1029555.2    -738144.7      5339145 
    1500        0.375    18712.845    203270.68     -1767702    1029575.3   -738126.65    5323429.3 
    1600          0.4    18714.772    203842.73   -1767786.7    1029681.3   -738105.37    5307713.6 
    1700        0.425    18725.067    204377.15   -1768332.3    1030247.8   -738084.54    5291997.9 
    1800         0.45    18730.779    206460.92     -1768634      1030562   -738071.93    5276282.2 
    1900        0.475    18675.027    210129.85   -1765561.9    1027494.6   -738067.31    5260566.5 
    2000          0.5    18571.698    214721.42   -1759883.2    1021809.4   -738073.76    5244850.8 
    2100        0.525    18493.222    219023.89   -1755582.8    1017491.7   -738091.14    5229135.1 
    2200         0.55    18406.162    224285.41   -1750812.2    1012701.7   -738110.46    5213419.4 
    2300        0.575    18330.256    228990.02   -1746645.5    1008525.4   -738120.09    5197703.7 
    2400          0.6    18239.712    233957.57   -1741656.6    1003543.7    -738112.9      5181988 
    2500        0.625    18163.177     239301.7   -1737449.9    999332.76   -738117.13    5166272.3 
    2600         0.65    18076.788    244409.62   -1732715.3    994579.64   -738135.71    5150556.7 
    2700        0.675    17995.766    249590.48   -1728275.3     990121.8   -738153.48      5134841 
    2800          0.7    17917.278    254783.03   -1723942.7    985803.42   -738139.23    5119125.3 
    2900        0.725    17841.008    259873.43   -1719723.4    981607.11   -738116.33    5103409.6 
    3000         0.75    17746.155    266142.66   -1714502.9    976388.28   -738114.62    5087693.9 
    3100        0.775    17610.122    275721.94   -1707021.3    968903.82   -738117.48    5071978.2 
    3200          0.8    17454.639    281742.78   -1698470.1    960349.15   -738120.97    5056262.5 
    3300        0.825    17312.449    290397.37   -1690656.2    952525.92   -738130.24    5040546.8 
    3400         0.85    17168.661    300111.22   -1682762.6    944614.74   -738147.82    5024831.1 
    3500        0.875     17020.33    307978.91   -1674618.7    936453.63   -738165.11    5009115.4 
    3600          0.9    16867.114    317219.72   -1666204.6     928023.7   -738180.87    4993399.7 
    3700        0.925    16711.839    328151.43   -1657661.1    919480.51   -738180.57      4977684 
    3800         0.95    16555.005    338524.29   -1649019.4    910851.58   -738167.81    4961968.3 
    3900        0.975    16392.155    348937.37   -1640054.8    901891.59    -738163.2    4946252.6 
    4000            1    16233.467    360060.72   -1631342.9    893160.64   -738182.24    4930536.9 
    4100        1.025    16073.834    371405.32   -1622579.7    884377.71   -738201.97    4914821.3 
    4200         1.05    15911.834    382779.84   -1613656.5    875464.49      -738192    4899105.6 
    4300        1.075    15752.187    394267.44     -1604850    866680.79   -738169.17    4883389.9 
    4400          1.1    15588.144    405779.74   -1595813.9    857655.17   -738158.76    4867674.2 
    4500        1.125    15429.097    417271.15   -1587046.2    848904.46    -738141.7    4851958.5 
    4600         1.15    15266.308    428789.09   -1578068.7    839947.84   -738120.85    4836242.8 
    4700        1.175    15106.876    440532.76     -1569293    831175.93   -738117.02    4820527.1 
    4800          1.2    14944.166    452100.36   -1560339.2     822223.7   -738115.51    4804811.4 
    4900        1.225    14782.932    463459.29   -1551436.5    813352.62   -738083.85    4789095.7 
    5000         1.25    14620.014    474901.05   -1542441.4    804388.93   -738052.42      4773380 
    5100        1.275    14462.185    486649.06   -1533779.7    795705.21   -738074.48    4757664.3 
    5200          1.3    14294.265    498360.56     -1524556     786466.3   -738089.67    4741948.6 
    5300        1.325    14145.795    509185.67     -1516375    778297.52   -738077.52    4726232.9 
    5400         1.35    14023.936     518013.4   -1509675.4    771592.88    -738082.5    4710517.2 
    5500        1.375    13900.459    525647.03   -1502913.5    764799.22   -738114.25    4694801.5 
    5600          1.4     13816.83    532588.88   -1498315.1    760197.98   -738117.16    4679085.8 
    5700        1.425    13727.992    540153.15   -1493399.9    755310.16   -738089.72    4663370.2 
    5800         1.45    13627.875    546967.67   -1487887.8    749801.71   -738086.11    4647654.5 
    5900        1.475    13558.267    551867.34   -1484074.9    745971.92   -738102.98    4631938.8 
    6000          1.5     13545.61    553204.92   -1483368.5    745275.54   -738092.92    4616223.1 
    6100        1.525    13528.001    552971.76     -1482394    744306.69   -738087.26    4600507.4 
    6200         1.55    13462.938    553161.58   -1478833.7    740726.93   -738106.81    4584791.7 
    6300        1.575    13479.981    553910.13   -1479782.4    741664.63   -738117.78      4569076 
    6400          1.6    13488.261    555853.31     -1480220     742120.2   -738099.83    4553360.3 
    6500        1.625    13473.941    557987.16   -1479428.1    741332.32   -738095.83    4537644.6 
    6600         1.65    13427.561    562424.52   -1476901.6    738780.51   -738121.12    4521928.9 
    6700        1.675    13374.503    563577.59   -1473994.4    735861.28   -738133.07    4506213.2 
    6800          1.7    13314.167    564427.18   -1470675.2    732541.59   -738133.58    4490497.5 
    6900        1.725    13259.019    569003.12   -1467659.7     729507.4   -738152.31    4474781.8 
    7000         1.75    13198.775    572227.49   -1464345.8     726192.8   -738153.04    4459066.1 
    7100        1.775    13093.153    577781.21   -1458507.2    720381.49   -738125.72    4443350.4 
    7200          1.8    13009.513    585194.79   -1453890.1    715779.65   -738110.47    4427634.7 
    7300        1.825    12859.023    591669.97   -1445610.2     707499.7   -738110.48    4411919.1 
    7400         1.85    12761.566    601867.47   -1440254.3    702137.64   -738116.68    4396203.4 
    7500        1.875    12612.533    613542.67   -1432058.4    693937.93   -738120.44    4380487.7 
    7600          1.9    12471.202    623129.18   -1424309.2    686161.91   -738147.27      4364772 
    7700        1.925    12311.932    636068.87     -1415566    677398.93   -738167.05    4349056.3 
    7800         1.95    12145.599    650912.34   -1406405.3    668247.35   -738157.98    4333340.6 
    7900        1.975    11967.838    664936.15   -1396624.7    658466.95   -738157.78    4317624.9 
    8000            2    11780.613    680354.32   -1386348.5    648165.91   -738182.62    4301909.2 
    8100        2.025    11582.221    696881.78   -1375455.7    637250.47   -738205.26    4286193.5 
    8200         2.05    11379.567    713559.71   -1364283.6    626100.45   -738183.16    4270477.8 
    8300        2.075    11170.612    730682.51     -1352770    614603.84   -738166.17    4254762.1 
    8400          2.1    10953.033    747825.56   -1340814.7    602632.72   -738182.02    4239046.4 
    8500        2.125    10730.804    765474.48     -1328581    590405.73   -738175.32    4223330.7 
    8600         2.15    10506.314     782682.8   -1316200.1    578054.34   -738145.77      4207615 
    8700        2.175    10301.684     799752.5   -1304935.2    566795.64   -738139.59    4191899.3 
    8800          2.2     10095.47    816735.31     -1293597    555449.83   -738147.17    4176183.7 
    8900        2.225    9908.6784    833128.17     -1283311    545172.61   -738138.42      4160468 
    9000         2.25    9727.2282    848682.21   -1273325.3    535189.27      -738136    4144752.3 
    9100        2.275     9571.151    864094.31   -1264743.8    526601.95   -738141.88    4129036.6 
    9200          2.3     9419.418    878114.83   -1256389.2    518253.65    -738135.6    4113320.9 
    9300        2.325    9286.8316    891550.16   -1249072.2    510958.78   -738113.41    4097605.2 
    9400         2.35    9154.1131    904374.08   -1241785.6    503656.65   -738128.99    4081889.5 
    9500        2.375     9027.575    916394.73     -1234850    496694.56   -738155.48    4066173.8 
    9600          2.4     8964.771    925135.65   -1231385.7     493239.1    -738146.6    4050458.1 
    9700        2.425    8925.7581    929592.64   -1229216.5    491092.62   -738123.84    4034742.4 
    9800         2.45    8845.7417    933622.89     -1224817    486690.14   -738126.89    4019026.7 
    9900        2.475    8810.5321    938421.55   -1222895.1    484752.92   -738142.18      4003311 
   10000          2.5     8773.817    945491.74   -1220863.7    482732.87   -738130.85    3987595.3 
   10100        2.525    8790.4064    948194.67   -1221771.4    483645.61    -738125.8    3971879.6 
   10200         2.55    8838.7334     945489.3   -1224458.8    486304.55   -738154.29    3956163.9 
   10300        2.575    8803.7166    943393.33   -1222558.5    484377.93   -738180.52    3940448.2 
   10400          2.6    8832.7257    942264.04   -1224149.8    485974.01   -738175.77    3924732.6 
   10500        2.625    8886.1135    943911.01   -1227088.1    488911.39   -738176.67    3909016.9 
   10600         2.65    8884.8189    946750.87   -1227032.3    488840.16    -738192.1    3893301.2 
   10700        2.675    8911.9177    947924.12   -1228531.1    490331.13   -738199.96    3877585.5 
   10800          2.7    8891.0371    952076.42   -1227350.2    489182.28   -738167.96    3861869.8 
   10900        2.725    8843.3126     953974.3   -1224695.7     486556.5    -738139.2    3846154.1 
   11000         2.75    8810.0133    959688.89   -1222875.7    484724.38   -738151.32    3830438.4 
   11100        2.775    8734.0793    968119.49   -1218715.8    480546.51    -738169.3    3814722.7 
   11200          2.8    8635.2779    976438.19     -1213284    475110.48   -738173.49      3799007 
   11300        2.825    8489.1788    987429.93   -1205248.3    467072.16   -738176.15    3783291.3 
   11400         2.85    8303.5517    999588.31   -1195055.7    456859.01   -738196.69    3767575.6 
   11500        2.875    8138.4861    1016081.7   -1185978.8    447777.14   -738201.66    3751859.9 
   11600          2.9    7908.4438    1034292.5   -1173296.8    435120.28   -738176.51    3736144.2 
   11700        2.925    7692.0203    1051654.5   -1161375.6    423212.72   -738162.91    3720428.5 
   11800         2.95    7452.0671    1071544.4   -1148194.5    410010.57   -738183.96    3704712.8 
   11900        2.975    7212.0197    1094292.2   -1135006.6    396803.23   -738203.37    3688997.1 
   12000            3    6966.2924    1116575.1   -1121486.7    383283.39   -738203.27    3673281.5 
   12100        3.025    6720.7088    1139304.3   -1107969.2    369771.45   -738197.75    3657565.8 
   12200         3.05    6480.9505    1162745.5   -1094768.4    356580.02   -738188.41    3641850.1 
   12300        3.075    6257.4545    1186684.9   -1082423.6    344283.33   -738140.22    3626134.4 
   12400          3.1    6041.2836    1209939.6   -1070488.7    332389.67   -738099.05    3610418.7 
   12500        3.125    5839.3694    1232720.5   -1059392.2    321280.41   -738111.75      3594703 
   12600         3.15    5658.4889    1254881.8   -1049453.2    311328.42    -738124.8    3578987.3 
   12700        3.175    5499.4578    1276062.8   -1040677.3    302578.57   -738098.78    3563271.6 
   12800          3.2     5358.983    1295828.6   -1032919.6    294849.69   -738069.95    3547555.9 
   12900        3.225    5221.4316    1314013.2   -1025357.6    287281.65   -738075.97    3531840.2 
   13000         3.25    5114.7919    1331509.1   -1019513.7    281414.37   -738099.31    3516124.5 
   13100        3.275    5006.9663      1347776   -1013583.7    275481.83   -738101.88    3500408.8 
   13200          3.3    4917.3609    1363014.2   -1008648.8    270551.77   -738097.03    3484693.1 
   13300        3.325    4829.7968    1377699.9   -1003841.2    265734.02   -738107.21    3468977.4 
   13400         3.35    4747.5501    1392081.9   -999316.97    261208.83   -738108.14    3453261.7 
   13500        3.375    4668.3044    1405647.9   -994950.41    256848.76   -738101.66    3437546.1 
   13600          3.4    4594.4128    1419720.2   -990886.37    252783.26   -738103.11    3421830.4 
   13700        3.425    4526.6949    1433016.4   -987174.22    249057.44   -738116.78    3406114.7 
   13800         3.45    4524.8898    1441379.5   -987077.57    248958.13   -738119.44      3390399 
   13900        3.475    4496.8343    1446233.6   -985528.07    247414.52   -738113.56    3374683.3 
   14000          3.5    4460.2678    1450778.6    -983504.9    245402.64   -738102.26    3358967.6 
   14100        3.525    4450.5414    1458190.1   -982578.91     244867.5   -737711.41    3343251.9 
   14200         3.55    4764.8216    1471917.8   -981353.77     262159.1   -719194.67    3327536.2 
   14300        3.575     5678.088    1487564.5   -984830.56    312406.75   -672423.81    3311820.5 
   14400          3.6    5741.7527    1487331.6   -983582.56    315909.57   -667672.99    3296104.8 
   14500        3.625    5977.8137    1496853.4   -978592.26    328897.58   -649694.68    3280389.1 
   14600         3.65    6263.0194    1519116.7   -961716.36    344589.51   -617126.85    3264673.4 
   14700        3.675    6128.3467    1551848.2   -937594.86    337179.86      -600415    3248957.7 
   14800          3.7    6108.7862    1575300.7   -918041.75    336103.64    -581938.1      3233242 
   14900        3.725    6086.7958    1619507.1   -889610.79    334893.74   -554717.05    3217526.3 
   15000         3.75    5948.7139    1669637.7   -855822.47    327296.51   -528525.96    3201810.6 
   15100        3.775    5898.0921    1715877.4    -822838.9    324511.32   -498327.58      3186095 
   15200          3.8    6095.6792    1774482.2   -789002.82     335382.5   -453620.32    3170379.3 
   15300        3.825    6316.8527    1827845.5   -756052.17     347551.4   -408500.76    3154663.6 
   15400         3.85     6435.822    1882676.1   -723414.78    354097.06   -369317.73    3138947.9 
   15500        3.875    6692.9564    1941480.7   -691392.89    368244.52   -323148.37    3123232.2 
   15600          3.9    7163.4381    2001478.5   -660126.56    394130.29   -265996.28    3107516.5 
   15700        3.925    7561.1302    2060049.1   -629284.67    416011.19   -213273.48    3091800.8 
   15800         3.95    7850.4206    2117841.6   -598855.43    431927.86   -166927.57    3076085.1 
   15900        3.975    8235.9402    2176386.6   -569614.53    453139.04   -116475.49    3060369.4 
   16000            4     8657.897    2235054.2   -540482.55    476354.98   -64127.571    3044653.7 
   16100        4.025    9001.7065    2291883.4   -511353.99    495271.28   -16082.709      3028938 
   16200         4.05    9371.4112    2349472.5   -483179.13    515612.33    32433.195    3013222.3 
   16300        4.075    9792.9098    2409570.2    -455811.9    538803.06     82991.16    2997506.6 
   16400          4.1    10178.544    2467452.8   -428853.07    560020.54    131167.48    2981790.9 
   16500        4.125    10643.399    2521193.8   -406178.83     585596.7    179417.87    2966075.2 
   16600         4.15    11197.104      2567504   -387516.11    616061.44    228545.34    2950359.5 
   16700        4.175    11760.629    2609735.2   -368866.41    647066.41       278200    2934643.9 
   16800          4.2    12360.859    2651648.1   -352171.43     680090.9    327919.47    2918928.2 
   16900        4.225    12940.295    2695900.1   -334049.45    711971.28    377921.83    2903212.5 
   17000         4.25    13433.489    2744512.7   -311803.31    739106.65    427303.34    2887496.8 
   17100        4.275    13851.241    2797491.2    -285952.2    762091.25    476139.05    2871781.1 
   17200          4.3    14157.684    2861098.1   -255961.98    778951.66    522989.68    2856065.4 
   17300        4.325    14352.864    2926792.8   -222668.28    789690.44    567022.16    2840349.7 
   17400         4.35    14484.343    2991122.1   -188220.41    796924.33    608703.93      2824634 
   17500        4.375    14544.942    3059950.6   -152830.26     800258.5    647428.25    2808918.3 
   17600          4.4    14589.575    3129563.5   -117416.54    802714.18    685297.63    2793202.6 
   17700        4.425    14647.797    3199295.9   -82914.388    805917.53    723003.14    2777486.9 
   17800         4.45    14725.132    3273598.6   -48029.319     810172.5    762143.18    2761771.2 
   17900        4.475    14838.251    3349022.5   -13552.113    816396.25    802844.14    2746055.5 
   18000          4.5    15015.153    3427369.3    20987.079    826129.34    847116.42    2730339.8 
   18100        4.525     15298.68    3506691.1    54456.673    841728.91    896185.59    2714624.1 
   18200         4.55    15727.316    3585198.4    84423.579    865312.39    949735.97    2698908.5 
   18300        4.575    16236.643    3656275.1    109836.44     893335.4    1003171.8    2683192.8 
   18400          4.6    16788.385    3724120.6     132531.3    923692.07    1056223.4    2667477.1 
   18500        4.625    17318.256    3788628.3    154262.27    952845.41    1107107.7    2651761.4 
   18600         4.65    17863.695      3857636    174911.34    982855.34    1157766.7    2636045.7 
   18700        4.675    18355.875    3924429.6    195263.85    1009934.9    1205198.8      2620330 
   18800          4.7    18861.876    3989367.1    215190.94    1037774.9    1252965.9    2604614.3 
   18900        4.725    19365.812    4053789.6    234209.18    1065501.3    1299710.5    2588898.6 
   19000         4.75     19902.94    4121223.1    253864.68      1095054    1348918.7    2573182.9 
   19100        4.775    20525.646    4198110.7    273536.84    1129315.1    1402851.9    2557467.2 
   19200          4.8    21208.083    4281486.6    294224.56    1166862.6    1461087.1    2541751.5 
   19300        4.825    21885.016      4372305    319908.66    1204107.3    1524015.9    2526035.8 
   19400         4.85    22587.155    4464548.4    344703.06    1242738.7    1587441.8    2510320.1 
   19500        4.875    23245.832    4560413.7    371695.38      1278979    1650674.3    2494604.4 
   19600          4.9    23826.766    4661744.5    403697.44    1310941.8    1714639.2    2478888.7 
   19700        4.925    24284.969    4766280.4    442445.89      1336152    1778597.8      2463173 
   19800         4.95    24831.181    4869347.8    476985.43    1366204.4    1843189.8    2447457.4 
   19900        4.975    25365.148    4968516.5    510412.35    1395583.1    1905995.4    2431741.7 
   20000            5    25934.446    5065569.1    541861.87    1426905.7    1968767.5      2416026 
   20100        5.025    26523.012    5159267.6    570803.72    1459288.4    2030092.2    2400310.3 
   20200         5.05    27112.275    5252993.2     599327.4    1491709.5    2091036.9    2384594.6 
   20300        5.075     27648.58      5352617    627528.64    1521216.9    2148745.5    2368878.9 
   20400          5.1    28161.465      5458340     656443.9    1549435.6    2205879.5    2353163.2 
   20500        5.125    28532.761    5571076.2     690406.3    1569864.2    2260270.5    2337447.5 
   20600         5.15    28523.747    5707925.1    744548.35    1569368.3    2313916.6    2321731.8 
   20700        5.175    28354.589    5847548.4    805186.84    1560061.2    2365248.1    2306016.1 
   20800          5.2    28049.566    5996387.8       870479      1543279      2413758    2290300.4 
   20900        5.225    27668.903      6156448     938917.4      1522335    2461252.4    2274584.7 
   21000         5.25    27169.512    6323931.4    1011837.7    1494858.7    2506696.4      2258869 
   21100        5.275    26550.134    6492070.5    1089119.8    1460780.7    2549900.5    2243153.3 
   21200          5.3    25933.234    6663794.4      1165474      1426839      2592313    2227437.6 
   21300        5.325    25245.535    6835051.7    1243365.5      1389002    2632367.5    2211721.9 
   21400         5.35    24507.258    7006438.1    1323612.3    1348382.2    2671994.6    2196006.3 
   21500        5.375    23738.936      7180421    1404107.6    1306109.4      2710217    2180290.6 
   21600          5.4    22950.845    7361793.2    1485462.1    1262748.9    2748210.9    2164574.9 
   21700        5.425    22096.087    7553710.5    1569534.3    1215720.3    2785254.6    2148859.2 
   21800         5.45    21188.098    7736245.9    1654390.6      1165763    2820153.6    2133143.5 
   21900        5.475    20271.915    7927005.4    1739424.5    1115354.9    2854779.4    2117427.8 
   22000          5.5    19429.628    8127887.1      1821712    1069012.5    2890724.5    2101712.1 
   22100        5.525    18556.354    8328434.1    1906431.6    1020965.2    2927396.8    2085996.4 
   22200         5.55    17761.312    8526717.8    1988572.1    977222.21    2965794.3    2070280.7 
   22300        5.575    17085.635    8723619.6    2067478.9    940046.71    3007525.6      2054565 
   22400          5.6    16475.648      8914814      2143548    906485.35    3050033.4    2038849.3 
   22500        5.625    15962.531    9108652.7    2214703.2    878253.85    3092957.1    2023133.6 
   22600         5.65    15551.386    9302901.7    2282175.3    855632.77      3137808    2007417.9 
   22700        5.675    15210.315      9488948    2346039.7    836867.14    3182906.9    1991702.2 
   22800          5.7    15005.067    9670202.5    2404363.7    825574.45    3229938.1    1975986.5 
   22900        5.725    14741.195    9858230.8    2464193.6    811056.25    3275249.8    1960270.9 
   23000         5.75    14532.801     10062815      2523409    799590.52    3322999.5    1944555.2 
   23100        5.775    14270.889     10271206    2585187.6    785180.17    3370367.8    1928839.5 
   23200          5.8    14061.033     10483847    2648152.3    773633.97    3421786.2    1913123.8 
   23300        5.825     13864.04     10711292    2713216.4    762795.45    3476011.9    1897408.1 
   23400         5.85    13692.487     10951466    2783646.5    753356.66    3537003.2    1881692.4 
   23500        5.875     13633.04     11206039    2862047.4     750085.9    3612133.3    1865976.7 
   23600          5.9    14142.458     11506614    2950042.5    778113.92    3728156.4      1850261 
   23700        5.925    14961.912     11861775    3065278.8    823200.08    3888478.9    1834545.3 
   23800         5.95    15256.825     12218415    3197882.4    839426.09    4037308.5    1818829.6 
   23900        5.975    16036.112     12624719    3344848.4    882302.22    4227150.7    1803113.9 
   24000            6    16912.421     13053882    3496188.3    930516.49    4426704.8    1787398.2 
   24100        6.025    17440.187     13484862    3655543.7    959554.01    4615097.7    1771682.5 
   24200         6.05    18267.335     13945678    3819173.7    1005063.5    4824237.2    1755966.8 
   24300        6.075    19104.429     14422059      3987427    1051120.1    5038547.2    1740251.1 
   24400          6.1    19924.126     14902683    4157026.1    1096219.6    5253245.7    1724535.4 
   24500        6.125    20727.694     15395270    4331028.5    1140431.7    5471460.2    1708819.8 
   24600         6.15      21409.5     15907001      4508300    1177944.5    5686244.5    1693104.1 
   24700        6.175    22136.751     16417222    4684815.4    1217957.6    5902773.1    1677388.4 
   24800          6.2    23113.779     16931199    4853528.2    1271713.4    6125241.6    1661672.7 
   24900        6.225     24303.09     17451021    5011189.5    1337148.9    6348338.4      1645957 
   25000         6.25    25654.104     17975260    5161562.7    1411481.3    6573044.1    1630241.3 
   25100        6.275    27292.571     18507998    5300894.7    1501629.3      6802524    1614525.6 
   25200          6.3    29099.506     19032120    5429794.1    1601046.4    7030840.5    1598809.9 
   25300        6.325     30863.95     19575756    5557111.2    1698125.6    7255236.8    1583094.2 
   25400         6.35     32597.44     20122820    5686364.6    1793501.7    7479866.3    1567378.5 
   25500        6.375    34361.025     20686088    5816432.4    1890533.6      7706966    1551662.8 
   25600          6.4    36129.317     21256613    5947765.1    1987824.5    7935589.6    1535947.1 
   25700        6.425     37538.67     21872287    6092681.2    2065366.8    8158047.9    1520231.4 
   25800         6.45    37543.319     22541410    6310039.8    2065622.5    8375662.3    1504515.7 
   25900        6.475    36977.348     23233913    6557615.6      2034483    8592098.6      1488800 
   26000          6.5    35935.329     23945917    6828193.4    1977151.4    8805344.8    1473084.3 
   26100        6.525     34731.64     24698981    7107010.3    1910924.7      9017935    1457368.7 
   26200         6.55    33450.667     25451794    7387456.5      1840446    9227902.5      1441653 
   26300        6.575    32085.225     26226898    7668379.7    1765319.8    9433699.5    1425937.3 
   26400          6.6    30284.938     26991631    7963293.1    1666268.5    9629561.6    1410221.6 
   26500        6.625    28142.147     27774959    8272236.6    1548372.8    9820609.3    1394505.9 
   26600         6.65    26171.964     28592683    8567672.3    1439973.9     10007646    1378790.2 
   26700        6.675    24591.647     29393920    8835630.8    1353025.3     10188656    1363074.5 
   26800          6.7    23694.329     30196233    9071840.9    1303655.1     10375496    1347358.8 
   26900        6.725    23016.948     31007367    9301192.5    1266385.8     10567578    1331643.1 
   27000         6.75    22356.517     31853195    9535065.5    1230049.1     10765115    1315927.4 
   27100        6.775    21926.877     32773008    9776121.6    1206410.4     10982532    1300211.7 
   27200          6.8    23184.271     33763301     10008703    1275591.8     11284295      1284496 
   27300        6.825    25305.923     34841367     10272922    1392324.5     11665246    1268780.3 
   27400         6.85    25143.954     35916634     10650783    1383413.1     12034196    1253064.6 
   27500        6.875    25055.441     37179697     11077158    1378543.1     12455702    1237348.9 
   27600          6.9    25631.445     38570761     11522936    1410234.7     12933170    1221633.3 
   27700        6.925    27313.464     39923259     11949985    1502778.9     13452764    1205917.6 
   27800         6.95    28826.092     41220735     12373344    1586003.2     13959348    1190201.9 
   27900        6.975    29961.442     42701631     12836610    1648469.8     14485080    1174486.2 
   28000            7    31424.245     44284398     13297020    1728952.8     15025973    1158770.5 
   28100        7.025    34356.294     45837310     13688381    1890273.3     15578655    1143054.8 
   28200         7.05    37974.818     47299344     14027550    2089363.4     16116914    1127339.1 
   28300        7.075    40754.149     48933486     14391286    2242281.4     16633568    1111623.4 
   28400          7.1     42678.36     50708401     14789552      2348151     17137703    1095907.7 
   28500        7.125     44808.75     52482013     15198439    2465364.4     17663804      1080192 
   28600         7.15    45046.949     54105298     15714283    2478470.1     18192753    1064476.3 
   28700        7.175     42963.94     55736573     16325053    2363863.5     18688916    1048760.6 
   28800          7.2    40699.408     57476546     16964849    2239269.6     19204118    1033044.9 
   28900        7.225    39087.002     59313980     17567940    2150555.5     19718496    1017329.2 
   29000         7.25    36676.653     61138993     18197304    2017938.8     20215243    1001613.5 
   29100        7.275    33654.886     62909877     18842187      1851682     20693869    985897.85 
   29200          7.3    31960.054     64866893     19406468    1758432.9     21164901    970182.15 
   29300        7.325      32286.4     67006530     19886299    1776388.4     21662687    954466.46 
   29400         7.35    33489.567     69169701     20433701    1842586.3     22276287    938750.77 
   29500        7.375    36656.794     71607019     21037044    2016846.2     23053891    923035.07 
   29600          7.4    37637.339     74268864     21746486    2070795.5     23817281    907319.38 
   29700        7.425    37342.137     77064194     22581696    2054553.6     24636250    891603.68 
   29800         7.45    37484.485     80012132     23419506    2062385.5     25481892    875887.99 
   29900        7.475     39905.25     83317042     24264094    2195575.3     26459670     860172.3 
   30000          7.5    42250.512     86627458     25122598    2324610.9     27447209     844456.6 
   30100        7.525    47286.574     90117756     25860425    2601693.6     28462119    828740.91 
   30200         7.55    52501.507     93609172     26550130    2888617.7     29438748    813025.22 
   30300        7.575    55179.438     97212185     27351720    3035956.7     30387676    797309.52 
   30400          7.6    54646.867 1.0130015e+08     28336668    3006654.8     31343323    781593.83 
   30500        7.625    52002.083 1.0545397e+08     29435469    2861139.5     32296609    765878.14 
   30600         7.65    49187.003 1.0989293e+08     30534999    2706254.6     33241254    750162.44 
   30700        7.675    45880.487 1.1447145e+08     31678941    2524331.1     34203272    734446.75 
   30800          7.7    45691.208 1.1922117e+08     32678769      2513917     35192686    718731.05 
   30900        7.725    50477.118 1.2441162e+08     33631556    2777236.4     36408792    703015.36 
   31000         7.75    53378.618 1.3024656e+08     34788554    2936876.1     37725430    687299.67 
   31100        7.775    51343.189 1.3659117e+08     36202665    2824887.4     39027552    671583.97 
   31200          7.8    51612.866 1.4349229e+08     37625655    2839724.9     40465380    655868.28 
   31300        7.825    56124.458 1.5111465e+08     39096099    3087951.4     42184051    640152.59 
   31400         7.85    63122.497 1.5890034e+08     40366679    3472981.5     43839660    624436.89 
   31500        7.875    67366.346 1.6708557e+08     41740336    3706476.8     45446812     608721.2 
   31600          7.9    64258.741 1.7616559e+08     43528263    3535497.3     47063760    593005.51 
   31700        7.925    61188.967 1.8580539e+08     45343095    3366599.2     48709694    577289.81 
   31800         7.95    59236.013 1.959971e+08     47155526    3259148.2     50414674    561574.12 
   31900        7.975    67677.986 2.074357e+08     48817901    3723623.2     52541524    545858.42 
   32000            8    67754.472 2.1997658e+08     50897866    3727831.4     54625698    530142.73 
   32100        8.025    66178.279 2.3366425e+08     53154431    3641109.7     56795541    514427.04 
   32200         8.05     72807.13 2.4918848e+08     55430805    4005827.2     59436632    498711.34 
   32300        8.075    80060.516 2.6550278e+08     57612887    4404906.4     62017793    482995.65 
   32400          8.1     76457.46 2.8351788e+08     60372472    4206667.3     64579139    467279.96 
   32500        8.125    75043.466 3.034634e+08     63226485    4128869.7     67355354    451564.26 
   32600         8.15    86266.227 3.2590686e+08     65917027    4746342.8     70663370    435848.57 
   32700        8.175    83764.108 3.5057481e+08     69255588    4608676.9     73864265    420132.88 
   32800          8.2    85825.454 3.7848923e+08     72737870    4722091.6     77459962    404417.18 
   32900        8.225    95159.573 4.0971082e+08     76213083    5235652.1     81448735    388701.49 
   33000         8.25    91577.455 4.4486426e+08     80435476      5038565     85474041     372985.8 
   33100        8.275    104711.71 4.854845e+08     84623067    5761208.1     90384275     357270.1 
   33200          8.3    102057.77 5.3093682e+08     89580759    5615188.8     95195947    341554.41 
   33300        8.325    107701.04 5.8286713e+08     94673502    5925679.8 1.0059918e+08    325838.71 
   33400         8.35    110160.21 6.439619e+08 1.0060262e+08    6060982.8 1.066636e+08    310123.02 
   33500        8.375    126655.08 7.1574097e+08 1.0679016e+08    6968525.9 1.1375869e+08    294407.33 
   33600          8.4    123167.29 7.9730386e+08 1.1401216e+08    6776628.7 1.2078879e+08    278691.63 
   33700        8.425    130057.81 8.9587476e+08 1.2201951e+08    7155743.1 1.2917526e+08    262975.94 
   33800         8.45    147670.35 1.0151342e+09 1.3087375e+08    8124779.8 1.3899853e+08    247260.25 
   33900        8.475    147962.95 1.1550969e+09 1.4102013e+08    8140878.7  1.49161e+08    231544.55 
   34000          8.5    170182.61 1.3336276e+09 1.5274283e+08    9363397.6 1.6210622e+08    215828.86 
   34100        8.525    170485.34 1.5479607e+09 1.662533e+08    9380053.9 1.7563335e+08    200113.17 
   34200         8.55    198949.29 1.827907e+09 1.8205508e+08     10946132 1.9300121e+08    184397.47 
   34300        8.575    206520.64 2.1823049e+09 2.0090573e+08     11362706 2.1226843e+08    168681.78 
   34400          8.6    230536.45 2.6574113e+09 2.2365195e+08     12684049 2.3633599e+08    152966.08 
   34500        8.625     264080.6 3.3053124e+09 2.5143421e+08     14529638 2.6596385e+08    137250.39 
   34600         8.65    302215.27 4.2191729e+09 2.8647493e+08     16627796 3.0310273e+08     121534.7 
   34700        8.675    352543.61 5.5717777e+09 3.3195322e+08     19396847 3.5135006e+08       105819 
   34800          8.7    435688.06 7.6994887e+09 3.9310303e+08     23971430 4.1707446e+08     90103.31 
ERROR: Lost atoms: original 425652 current 425629 (../thermo.cpp:439)
Last command: run 50000
