LAMMPS (29 Sep 2021)
  using 1 OpenMP thread(s) per MPI task
Reading restart file ...
  restart file = 29 Sep 2021, LAMMPS = 29 Sep 2021
  restoring atom style atomic from restart
  orthogonal box = (-0.27910246 -0.27339968 0.0000000) to (101.49649 101.49079 619.76800)
  2 by 1 by 12 MPI processor grid
  pair style eam/alloy/gpu stores no restart info
  442392 atoms
  read_restart CPU = 0.034 seconds
Resetting global fix info from restart file:
  fix style: npt/gpu, fix ID: 2

CITE-CITE-CITE-CITE-CITE-CITE-CITE-CITE-CITE-CITE-CITE-CITE-CITE

Your simulation uses code contributions which should be cited:
- GPU package (short-range, long-range and three-body potentials):
The log file lists these citations in BibTeX format.

CITE-CITE-CITE-CITE-CITE-CITE-CITE-CITE-CITE-CITE-CITE-CITE-CITE


--------------------------------------------------------------------------
- Using acceleration for eam/alloy:
-  with 12 proc(s) per device.
-  Horizontal vector operations: ENABLED
-  Shared memory system: No
--------------------------------------------------------------------------
Device 0: Tesla V100-SXM2-32GB, 80 CUs, 28/32 GB, 1.5 GHZ (Mixed Precision)
Device 1: Tesla V100-SXM2-32GB, 80 CUs, 1.5 GHZ (Mixed Precision)
--------------------------------------------------------------------------

Initializing Device and compiling on process 0...Done.
Initializing Devices 0-1 on core 0...Done.
Initializing Devices 0-1 on core 1...Done.
Initializing Devices 0-1 on core 2...Done.
Initializing Devices 0-1 on core 3...Done.
Initializing Devices 0-1 on core 4...Done.
Initializing Devices 0-1 on core 5...Done.
Initializing Devices 0-1 on core 6...Done.
Initializing Devices 0-1 on core 7...Done.
Initializing Devices 0-1 on core 8...Done.
Initializing Devices 0-1 on core 9...Done.
Initializing Devices 0-1 on core 10...Done.
Initializing Devices 0-1 on core 11...Done.

All restart file global fix info was re-assigned
Unused restart file peratom fix info:
  fix style: STORE, fix ID: spatialbins_COMPUTE_STORE
Setting up Verlet run ...
  Unit style    : metal
  Current step  : 11000185
  Time step     : 0.00025
Per MPI rank memory allocation (min/avg/max) = 7.015 | 9.425 | 10.02 Mbytes
Step Time Temp PotEng E_pair TotEng Press Volume Lx Ly Lz CPULeft 
11000185            0    299.86953   -1714236.8   -1714236.8   -1697089.2   -26.806525    6419005.4    101.77559    101.76419      619.768            0 
11010000      2.45375    299.86527   -1714199.9   -1714199.9   -1697052.5    40.274618    6418676.2    101.77404    101.76052      619.768    7419.8255 
11020000      4.95375    300.65451   -1714243.9   -1714243.9   -1697051.5   -82.358512    6419152.6    101.77101     101.7711      619.768    7375.1097 
11030000      7.45375    299.80825   -1714239.6   -1714239.6   -1697095.5    -7.757224    6418795.2    101.76153    101.77492      619.768    7308.2298 
11040000      9.95375    299.88035   -1714243.1   -1714243.1   -1697094.9    28.650875    6417983.2    101.75871    101.76485      619.768     7227.202 
11050000     12.45375    300.14763   -1714252.4   -1714252.4   -1697088.9    24.937181    6417442.9    101.75697    101.75803      619.768    7149.8344 
11060000     14.95375    300.01355     -1714231     -1714231   -1697075.2   -4.6643169    6417430.3    101.75525    101.75955      619.768    7074.1751 
11070000     17.45375    300.29638   -1714214.3   -1714214.3   -1697042.3    -3.831064    6417484.9    101.75927    101.75639      619.768    6997.8793 
11080000     19.95375      299.866   -1714218.6   -1714218.6   -1697071.2   -103.62245    6417662.8    101.75252    101.76597      619.768    6921.2479 
11090000     22.45375    299.54905   -1714209.7   -1714209.7   -1697080.4   -79.744304    6418228.3    101.76071    101.76675      619.768    6844.2215 
11100000     24.95375    300.28591   -1714221.3   -1714221.3   -1697049.9    40.375359    6418001.1    101.75592    101.76793      619.768    6768.4974 
11110000     27.45375    299.91756   -1714223.1   -1714223.1   -1697072.8    45.339996    6417777.7    101.76066    101.75965      619.768     6693.796 
11120000     29.95375    300.17217   -1714232.8   -1714232.8   -1697067.9    78.245447    6418239.2    101.75771    101.76992      619.768    6618.6543 
11130000     32.45375    299.72201   -1714226.9   -1714226.9   -1697087.7    25.684343    6418611.3    101.76876    101.76477      619.768    6546.0006 
11140000     34.95375    300.13534   -1714238.7   -1714238.7   -1697075.9    98.157797    6418579.6     101.7673    101.76573      619.768    6471.4984 
11150000     37.45375    300.09655   -1714242.9   -1714242.9   -1697082.4    6.6945598    6418441.3    101.76448    101.76636      619.768    6399.2896 
11160000     39.95375    299.70666     -1714231     -1714231   -1697092.8    89.577366    6418195.1    101.76115    101.76578      619.768    6324.3244 
11170000     42.45375    300.25495   -1714235.7   -1714235.7   -1697066.1   -88.053741    6418558.1    101.76259    101.77009      619.768     6247.357 
11180000     44.95375    300.36246   -1714231.4   -1714231.4   -1697055.6    52.552916    6417361.5    101.75455    101.75916      619.768    6171.0823 
11190000     47.45375    300.22501   -1714224.3   -1714224.3   -1697056.4   -82.720808    6417792.1    101.76218    101.75835      619.768    6094.3318 
11200000     49.95375     299.5401   -1714226.9   -1714226.9   -1697098.1   -54.114329    6417412.3    101.75146    101.76306      619.768    6017.3025 
11210000     52.45375    300.11352   -1714210.1   -1714210.1   -1697048.6   -73.037798    6417542.6    101.75632    101.76027      619.768     5940.889 
11220000     54.95375    300.52022   -1714220.6   -1714220.6   -1697035.8   -75.691535    6417734.6    101.75924    101.76039      619.768    5865.7537 
11230000     57.45375    300.32444   -1714241.1   -1714241.1   -1697067.5   -65.547968    6418457.6    101.76165    101.76944      619.768    5790.4998 
11240000     59.95375     299.3263   -1714225.9   -1714225.9   -1697109.4    8.9484703    6418337.4    101.75646    101.77273      619.768    5714.6558 
11250000     62.45375    300.04343   -1714246.7   -1714246.7   -1697089.1    114.76956    6417676.5    101.75988    101.75882      619.768    5639.6236 
11260000     64.95375    300.25699   -1714240.5   -1714240.5   -1697070.7   -3.3833885    6419201.8    101.76791    101.77498      619.768    5565.8327 
11270000     67.45375    299.96026   -1714225.6   -1714225.6   -1697072.8    15.139542    6418818.1     101.7709     101.7659      619.768     5491.677 
11280000     69.95375    299.64431   -1714216.7   -1714216.7     -1697082   -9.4166876    6418770.1    101.76775     101.7683      619.768    5416.6593 
11290000     72.45375    300.24356   -1714241.7   -1714241.7   -1697072.7   -4.0874569    6418210.6    101.75983    101.76734      619.768    5341.3754 
11300000     74.95375    299.97456   -1714216.5   -1714216.5   -1697062.9   -34.171199    6417863.7     101.7552    101.76648      619.768    5265.8585 
11310000     77.45375    300.04538   -1714235.6   -1714235.6   -1697077.9   -65.487959      6417758    101.76092    101.75908      619.768    5190.5543 
11320000     79.95375    300.30569   -1714245.2   -1714245.2   -1697072.7   -64.768405    6417844.5    101.75235    101.76902      619.768    5115.4147 
11330000     82.45375    299.68551   -1714208.5   -1714208.5   -1697071.5   -63.308956    6418288.6    101.75599    101.77242      619.768    5039.9654 
11340000     84.95375    299.79936   -1714227.9   -1714227.9   -1697084.3   -71.543127    6418299.5    101.75522    101.77336      619.768    4964.6928 
11350000     87.45375    299.63218   -1714232.7   -1714232.7   -1697098.7    83.851607      6417799     101.7582    101.76244      619.768    4889.6883 
11360000     89.95375    299.94864   -1714198.5   -1714198.5   -1697046.4    2.3166219    6418583.6    101.76361    101.76948      619.768     4814.524 
11370000     92.45375    300.16019   -1714211.3   -1714211.3     -1697047   -5.2365517    6418969.8    101.76531    101.77391      619.768     4739.526 
11380000     94.95375    299.68402   -1714229.7   -1714229.7   -1697092.7    119.68414    6417757.5    101.75843    101.76156      619.768    4664.5666 
11390000     97.45375    299.97157   -1714243.1   -1714243.1   -1697089.7     49.42093    6418114.1    101.75941    101.76624      619.768    4589.1261 
11400000     99.95375    299.88052   -1714227.7   -1714227.7   -1697079.5    0.3085588    6418063.5    101.76066    101.76418      619.768    4513.9007 
11410000    102.45375    299.72195   -1714218.7   -1714218.7   -1697079.6   -46.943727      6418206     101.7646     101.7625      619.768    4438.3856 
11420000    104.95375    300.17388     -1714258     -1714258     -1697093   -58.772739    6417709.5    101.76482    101.75441      619.768    4363.1761 
11430000    107.45375    299.88508   -1714223.1   -1714223.1   -1697074.6   -35.101647    6417372.7    101.74964    101.76425      619.768     4287.915 
11440000    109.95375    299.91309   -1714230.7   -1714230.7   -1697080.7   -10.877375    6416954.1    101.75606    101.75119      619.768     4212.526 
11450000    112.45375    300.20797   -1714237.5   -1714237.5   -1697070.6   -57.058663      6417158    101.75991    101.75057      619.768     4137.068 
11460000    114.95375    299.65211   -1714232.4   -1714232.4   -1697097.2     27.01437      6417054    101.75388    101.75496      619.768    4061.8408 
11470000    117.45375    300.16899   -1714218.4   -1714218.4   -1697053.7    42.940357    6417543.1    101.75805    101.75854      619.768    3986.6305 
11480000    119.95375    300.32129     -1714238     -1714238   -1697064.6    104.32238    6417904.4    101.76212     101.7602      619.768    3911.5265 
11490000    122.45375    300.46152   -1714240.2   -1714240.2   -1697058.7    75.238254    6418397.9    101.76554    101.76461      619.768     3836.518 
11500000    124.95375    299.75751   -1714217.3   -1714217.3   -1697076.1    86.853244    6418629.9    101.76328    101.77054      619.768    3761.6083 
11510000    127.45375    300.17127   -1714227.5   -1714227.5   -1697062.7    70.397266    6418817.3    101.76554    101.77125      619.768    3686.7527 
11520000    129.95375    300.05967   -1714222.8   -1714222.8   -1697064.3    57.111011    6418017.2    101.76701     101.7571      619.768    3611.3349 
11530000    132.45375    299.99202   -1714248.7   -1714248.7   -1697094.1   -30.978629    6418119.1    101.75708    101.76864      619.768     3535.946 
11540000    134.95375    299.84081   -1714250.3   -1714250.3   -1697104.4   -34.656714    6417694.4    101.76243    101.75656      619.768    3460.5631 
11550000    137.45375    300.22415   -1714233.9   -1714233.9     -1697066   -102.19851    6417781.6    101.75754    101.76283      619.768    3385.1751 
11560000    139.95375    300.01504   -1714231.9   -1714231.9     -1697076   -68.329299    6417763.2    101.75824    101.76184      619.768     3309.793 
11570000    142.45375    300.22237   -1714236.3   -1714236.3   -1697068.5    48.652256    6417131.7    101.75779    101.75228      619.768    3234.3232 
11580000    144.95375    299.67383   -1714223.8   -1714223.8   -1697087.4     32.50968    6417818.7    101.75601    101.76495      619.768    3158.9442 
11590000    147.45375    300.26031   -1714221.2   -1714221.2   -1697051.3   -12.383378    6418168.8    101.76291     101.7636      619.768     3083.607 
11600000    149.95375    299.71563     -1714236     -1714236   -1697097.2    92.571294    6418223.1     101.7659    101.76147      619.768    3008.4208 
11610000    152.45375     299.3883   -1714217.8   -1714217.8   -1697097.7   -27.076153    6418436.5    101.76835    101.76241      619.768    2933.2734 
11620000    154.95375    300.07268   -1714248.2   -1714248.2     -1697089    73.534198    6417762.8    101.76312    101.75695      619.768    2858.0323 
11630000    157.45375    300.35122   -1714222.5   -1714222.5   -1697047.3    14.996205    6418498.6     101.7619    101.76984      619.768    2782.8496 
11640000    159.95375    299.99206   -1714233.8   -1714233.8   -1697079.2    0.9278083    6418179.1    101.76131    101.76536      619.768    2707.6389 
11650000    162.45375    300.14592   -1714221.1   -1714221.1   -1697057.7    27.472004    6417951.4    101.76145    101.76162      619.768    2632.4919 
11660000    164.95375    299.79019   -1714227.5   -1714227.5   -1697084.5    75.137961    6417475.2    101.76006    101.75545      619.768    2557.2819 
11670000    167.45375    299.85006   -1714228.6   -1714228.6   -1697082.1   0.35491044    6417769.6    101.76435    101.75583      619.768    2481.9372 
11680000    169.95375    299.61794   -1714226.7   -1714226.7   -1697093.5    17.493029    6417504.3    101.76134    101.75463      619.768    2406.5789 
11690000    172.45375    299.52952   -1714218.2   -1714218.2   -1697090.1    23.127996    6417607.8    101.75409    101.76352      619.768    2331.2366 
11700000    174.95375    299.21599   -1714214.1   -1714214.1   -1697103.9    40.061644    6417740.8    101.76684    101.75288      619.768    2255.9207 
11710000    177.45375    300.08905   -1714237.3   -1714237.3   -1697077.2    70.112576    6417119.9     101.7492    101.76068      619.768    2180.6506 
11720000    179.95375    300.10881   -1714235.2   -1714235.2   -1697073.9    44.372686    6417731.4    101.76166    101.75792      619.768    2105.4273 
11730000    182.45375    299.71561   -1714216.4   -1714216.4   -1697077.6   -54.524428    6418730.2    101.75684    101.77857      619.768    2030.1951 
11740000    184.95375    299.69494   -1714213.3   -1714213.3   -1697075.7   -2.7706806    6418313.5    101.75929    101.76952      619.768    1954.9812 
11750000    187.45375    300.12526   -1714229.7   -1714229.7   -1697067.5    16.350758    6418161.4    101.75931    101.76709      619.768    1879.7577 
11760000    189.95375    300.16747   -1714221.5   -1714221.5   -1697056.9    -39.08865    6418631.5    101.77587    101.75798      619.768    1804.5457 
11770000    192.45375    300.42437     -1714240     -1714240   -1697060.7   -102.25394    6418811.4    101.76624    101.77046      619.768    1729.3164 
11780000    194.95375    300.57721   -1714255.4   -1714255.4   -1697067.3   -78.926989      6418178    101.75256     101.7741      619.768     1654.088 
11790000    197.45375    299.59035   -1714228.7   -1714228.7   -1697097.1    81.746227    6417375.2     101.7629    101.75103      619.768    1578.9098 
11800000    199.95375    300.06012   -1714236.5   -1714236.5     -1697078    20.318724    6418049.4    101.75909    101.76553      619.768    1503.7648 
11810000    202.45375    300.12224   -1714222.5   -1714222.5   -1697060.4    13.309469    6418046.6    101.75751    101.76706      619.768    1428.6126 
11820000    204.95375     299.9331   -1714238.9   -1714238.9   -1697087.6     38.87597      6417936     101.7532    101.76962      619.768    1353.4533 
11830000    207.45375    299.89331   -1714232.6   -1714232.6   -1697083.6    33.083578    6418697.7    101.76563    101.76927      619.768    1278.2929 
11840000    209.95375    300.21483   -1714228.2   -1714228.2   -1697060.8     70.41111    6418276.1    101.75984    101.76838      619.768    1203.1848 
11850000    212.45375    300.07565   -1714225.4   -1714225.4   -1697066.1   -99.852657    6419202.5     101.7701     101.7728      619.768    1128.0973 
11860000    214.95375    300.07634   -1714232.8   -1714232.8   -1697073.3    86.590416    6418294.3     101.7593    101.76921      619.768    1052.9803 
11870000    217.45375    300.33999   -1714215.9   -1714215.9   -1697041.4    14.263862    6418652.2    101.76862    101.76555      619.768     977.8467 
11880000    219.95375    299.62123   -1714243.4   -1714243.4     -1697110   -35.403414    6418467.6    101.76704    101.76421      619.768    902.72666 
11890000    222.45375    299.68385   -1714232.1   -1714232.1   -1697095.2   -57.418651    6418550.1    101.76893    101.76362      619.768    827.61951 
11900000    224.95375     299.8865   -1714224.9   -1714224.9   -1697076.3    75.959188    6418064.6    101.75712    101.76773      619.768    752.49712 
11910000    227.45375    300.38848   -1714236.7   -1714236.7   -1697059.4   -159.77059    6418846.6     101.7765    101.76076      619.768    677.36892 
11920000    229.95375    300.29973   -1714241.3   -1714241.3   -1697069.1   -52.093642    6418340.8    101.76548    101.76376      619.768    602.25432 
11930000    232.45375    300.15507   -1714243.9   -1714243.9   -1697079.9    70.029197    6418125.8    101.75665    101.76918      619.768    527.14836 
11940000    234.95375    300.05641   -1714245.7   -1714245.7   -1697087.4     17.20931    6418010.5    101.76304    101.76096      619.768    452.03545 
11950000    237.45375    300.01291   -1714220.1   -1714220.1   -1697064.3    23.421428    6417969.8    101.76493    101.75843      619.768    376.91841 
11960000    239.95375    300.24158     -1714234     -1714234   -1697065.2    115.77397    6418049.2    101.76097    101.76365      619.768    301.81444 
11970000    242.45375    299.95925   -1714244.7   -1714244.7     -1697092    32.638386    6418506.5    101.77406    101.75781      619.768    226.70834 
11980000    244.95375    300.22368   -1714224.4   -1714224.4   -1697056.5    123.72865    6417341.7    101.75894    101.75446      619.768    151.60957 
11990000    247.45375    299.76165   -1714241.4   -1714241.4     -1697100    44.443101      6418032    101.76646    101.75788      619.768    76.498322 
12000000    249.95375    300.01781   -1714237.4   -1714237.4   -1697081.3   -11.510142      6418461    101.77429    101.75685      619.768    1.3894849 
12000185          250    300.02838   -1714223.8   -1714223.8   -1697067.1    18.347894    6418182.2    101.76547    101.76125      619.768            0 
Loop time of 7510.73 on 24 procs for 1000000 steps with 442392 atoms

Performance: 2.876 ns/day, 8.345 hours/ns, 133.143 timesteps/s
99.8% CPU use with 24 MPI tasks x 1 OpenMP threads

MPI task timing breakdown:
Section |  min time  |  avg time  |  max time  |%varavg| %total
---------------------------------------------------------------
Pair    | 2538.2     | 3577       | 4409.3     | 646.2 | 47.63
Neigh   | 0.21013    | 0.37553    | 0.54364    |  14.6 |  0.00
Comm    | 711.59     | 846.46     | 979.2      | 259.5 | 11.27
Output  | 3.5385     | 3.5416     | 3.5543     |   0.2 |  0.05
Modify  | 1922.2     | 2726.3     | 3827.2     | 777.6 | 36.30
Other   |            | 357        |            |       |  4.75

Nlocal:        18433.0 ave       21050 max       13357 min
Histogram: 4 0 0 0 0 4 0 8 0 8
Nghost:        19087.4 ave       21393 max       13362 min
Histogram: 4 0 0 0 0 0 0 6 6 8
Neighs:         0.00000 ave           0 max           0 min
Histogram: 24 0 0 0 0 0 0 0 0 0

Total # of neighbors = 0
Ave neighs/atom = 0.0000000
Neighbor list builds = 2488
Dangerous builds = 0
System init for write_restart ...


---------------------------------------------------------------------
      Device Time Info (average): 
---------------------------------------------------------------------
Data Transfer:   441.7425 s.
Neighbor copy:   0.0948 s.
Neighbor build:  5.4143 s.
Force calc:      2069.7040 s.
Device Overhead: 1330.2445 s.
Average split:   1.0000.
Lanes / atom:    4.
Vector width:    32.
Max Mem / Proc:  35.76 MB.
CPU Neighbor:    1.1235 s.
CPU Cast/Pack:   446.6584 s.
CPU Driver_Time: 17.4487 s.
CPU Idle_Time:   1087.6482 s.
---------------------------------------------------------------------


--------------------------------------------------------------------------
- Using acceleration for eam/alloy:
-  with 12 proc(s) per device.
-  Horizontal vector operations: ENABLED
-  Shared memory system: No
--------------------------------------------------------------------------
Device 0: Tesla V100-SXM2-32GB, 80 CUs, 28/32 GB, 1.5 GHZ (Mixed Precision)
Device 1: Tesla V100-SXM2-32GB, 80 CUs, 1.5 GHZ (Mixed Precision)
--------------------------------------------------------------------------

Initializing Device and compiling on process 0...Done.
Initializing Devices 0-1 on core 0...Done.
Initializing Devices 0-1 on core 1...Done.
Initializing Devices 0-1 on core 2...Done.
Initializing Devices 0-1 on core 3...Done.
Initializing Devices 0-1 on core 4...Done.
Initializing Devices 0-1 on core 5...Done.
Initializing Devices 0-1 on core 6...Done.
Initializing Devices 0-1 on core 7...Done.
Initializing Devices 0-1 on core 8...Done.
Initializing Devices 0-1 on core 9...Done.
Initializing Devices 0-1 on core 10...Done.
Initializing Devices 0-1 on core 11...Done.

System init for write_data ...

--------------------------------------------------------------------------
- Using acceleration for eam/alloy:
-  with 12 proc(s) per device.
-  Horizontal vector operations: ENABLED
-  Shared memory system: No
--------------------------------------------------------------------------
Device 0: Tesla V100-SXM2-32GB, 80 CUs, 28/32 GB, 1.5 GHZ (Mixed Precision)
Device 1: Tesla V100-SXM2-32GB, 80 CUs, 1.5 GHZ (Mixed Precision)
--------------------------------------------------------------------------

Initializing Device and compiling on process 0...Done.
Initializing Devices 0-1 on core 0...Done.
Initializing Devices 0-1 on core 1...Done.
Initializing Devices 0-1 on core 2...Done.
Initializing Devices 0-1 on core 3...Done.
Initializing Devices 0-1 on core 4...Done.
Initializing Devices 0-1 on core 5...Done.
Initializing Devices 0-1 on core 6...Done.
Initializing Devices 0-1 on core 7...Done.
Initializing Devices 0-1 on core 8...Done.
Initializing Devices 0-1 on core 9...Done.
Initializing Devices 0-1 on core 10...Done.
Initializing Devices 0-1 on core 11...Done.

Total wall time: 2:05:16
