LAMMPS (29 Sep 2021)
  using 1 OpenMP thread(s) per MPI task
Reading restart file ...
  restart file = 29 Sep 2021, LAMMPS = 29 Sep 2021
  restoring atom style atomic from restart
  orthogonal box = (0.60766706 0.61743057 0.0000000) to (100.63942 100.62965 541.67200)
  3 by 2 by 16 MPI processor grid
  pair style hybrid/overlay stores no restart info
  437300 atoms
  read_restart CPU = 0.047 seconds
Resetting global fix info from restart file:
  fix style: npt, fix ID: 2

CITE-CITE-CITE-CITE-CITE-CITE-CITE-CITE-CITE-CITE-CITE-CITE-CITE

Your simulation uses code contributions which should be cited:
- @article{cjiang2012
The log file lists these citations in BibTeX format.

CITE-CITE-CITE-CITE-CITE-CITE-CITE-CITE-CITE-CITE-CITE-CITE-CITE

All restart file global fix info was re-assigned
Unused restart file peratom fix info:
  fix style: STORE, fix ID: spatialbins_COMPUTE_STORE
Neighbor list info ...
  update every 1 steps, delay 10 steps, check yes
  max neighbors/atom: 2000, page size: 100000
  master list distance cutoff = 8.28721
  ghost atom cutoff = 8.28721
  binsize = 4.143605, bins = 25 25 131
  3 neighbor lists, perpetual/occasional/extra = 3 0 0
  (1) pair eam/alloy, perpetual, skip from (3)
      attributes: half, newton on
      pair build: skip
      stencil: none
      bin: none
  (2) pair edip/multi, perpetual
      attributes: full, newton on
      pair build: full/bin/atomonly
      stencil: full/bin/3d
      bin: standard
  (3) neighbor class addition, perpetual, half/full from (2)
      attributes: half, newton on
      pair build: halffull/newton
      stencil: none
      bin: none
Setting up Verlet run ...
  Unit style    : metal
  Current step  : 11001293
  Time step     : 0.00025
Per MPI rank memory allocation (min/avg/max) = 8.855 | 11.13 | 13.30 Mbytes
Step Time Temp PotEng E_pair TotEng Press Volume Lx Ly Lz CPULeft 
11001293            0    300.51054     -2025965     -2025965   -2008978.6    -233.0598    5419102.1    100.03175    100.01222      541.672            0 
11010000      2.17675     300.1623   -2025962.9   -2025962.9   -2008996.1     44.50012    5418133.1    100.01832    100.00777      541.672    45688.372 
11020000      4.67675    300.34898   -2025938.9   -2025938.9   -2008961.6   -455.21799    5418563.9    100.01844     100.0156      541.672    45267.765 
11030000      7.17675    299.86766   -2025938.2   -2025938.2   -2008988.1    280.69816    5418336.2    100.01879    100.01105      541.672    44836.605 
11040000      9.67675    299.70222   -2025916.7   -2025916.7   -2008975.9    103.97679    5418410.7     100.0267    100.00451      541.672    44393.653 
11050000     12.17675    300.25746   -2025946.4   -2025946.4   -2008974.3   -191.04808    5418363.5    100.02318    100.00716      541.672    43932.475 
11060000     14.67675    299.83957   -2025961.4   -2025961.4   -2009012.9    238.59341    5418909.6    100.03386    100.00656      541.672     43465.56 
11070000     17.17675    300.08363   -2025954.7   -2025954.7   -2008992.3   -70.118377    5419116.7    100.02385    100.02039      541.672    43004.943 
11080000     19.67675    299.97371   -2025971.8   -2025971.8   -2009015.7   -280.08779      5419014    100.02609    100.01626      541.672    42543.674 
11090000     22.17675    300.29293   -2025970.5   -2025970.5   -2008996.4     11.98629    5418706.1    100.02854    100.00813      541.672    42082.063 
11100000     24.67675    300.27545   -2025951.9   -2025951.9   -2008978.7   -452.26642    5419159.7    100.03392    100.01112      541.672    41619.798 
11110000     27.17675    300.38407   -2025982.2   -2025982.2   -2009002.9    219.43554    5418004.3    100.03065    99.993063      541.672    41158.685 
11120000     29.67675    300.15205   -2025960.7   -2025960.7   -2008994.5    322.94917      5417809       100.02     100.0001      541.672    40697.661 
11130000     32.17675    299.96949   -2025969.9   -2025969.9     -2009014   -246.72401    5418702.4    100.03027    100.00633      541.672    40237.549 
11140000     34.67675    299.92412     -2025965     -2025965   -2009011.7   -421.58002    5418797.7    100.02637    100.01198      541.672    39776.866 
11150000     37.17675    300.19334   -2025968.2   -2025968.2   -2008999.7   -329.77336    5419023.4    100.03055    100.01197      541.672    39317.116 
11160000     39.67675     300.4691   -2025966.6   -2025966.6   -2008982.5    414.03477    5418707.1    100.03419    100.00249      541.672     38857.48 
11170000     42.17675    300.15673   -2025985.7   -2025985.7   -2009019.2   -59.582218    5418913.4    100.02862    100.01187      541.672    38396.115 
11180000     44.67675    299.91203   -2025970.1   -2025970.1   -2009017.5    240.77027      5419015    100.02872    100.01364      541.672    37932.843 
11190000     47.17675    300.14056     -2025976     -2025976   -2009010.4    -286.6852    5418820.9    100.02586    100.01292      541.672    37471.297 
11200000     49.67675    299.60327   -2025952.8   -2025952.8   -2009017.6    120.27691    5418686.6    100.02094    100.01537      541.672    37010.053 
11210000     52.17675    299.98344   -2025950.4   -2025950.4   -2008993.7    416.61233    5417910.6    100.01241    100.00957      541.672    36551.724 
11220000     54.67675    300.08027   -2025941.2   -2025941.2     -2008979    429.68297    5418551.1    100.02964    100.00417      541.672     36090.86 
11230000     57.17675    299.91955   -2025955.4   -2025955.4   -2009002.4   -91.062746    5418999.4    100.02277     100.0193      541.672    35629.582 
11240000     59.67675    300.20604   -2025957.6   -2025957.6   -2008988.3   -182.61733      5418481    100.02057    100.01193      541.672    35167.674 
11250000     62.17675    299.86391   -2025956.2   -2025956.2   -2009006.3    88.311233    5418542.6    100.02578    100.00786      541.672    34703.761 
11260000     64.67675    300.13356     -2025986     -2025986   -2009020.9    65.700191      5419030    100.03153    100.01111      541.672    34239.514 
11270000     67.17675    299.82536   -2025949.4   -2025949.4   -2009001.6    248.24499    5418344.9    100.02118    100.00882      541.672    33776.329 
11280000     69.67675    299.80902   -2025953.5   -2025953.5   -2009006.7   -220.62374    5419347.6    100.02923    100.01928      541.672    33314.821 
11290000     72.17675    299.59625   -2025934.3   -2025934.3   -2008999.5    -155.8985    5417891.9    100.02562    99.996017      541.672    32852.527 
11300000     74.67675    300.25214   -2025945.3   -2025945.3   -2008973.4   -601.88041    5418354.9    100.02302    100.00716      541.672     32391.74 
11310000     77.17675     300.0817   -2025961.9   -2025961.9   -2008999.7   -303.20004    5418527.9    100.02758    100.00579      541.672    31930.182 
11320000     79.67675    300.65012   -2025961.5   -2025961.5   -2008967.2   -97.344679    5418607.6    100.02678    100.00806      541.672     31469.08 
11330000     82.17675    299.93699   -2025961.1   -2025961.1     -2009007   -422.59399    5418720.3    100.03185    100.00508      541.672    31007.164 
11340000     84.67675    299.20864   -2025933.7   -2025933.7   -2009020.8    144.80015    5418841.2    100.02347    100.01568      541.672    30544.349 
11350000     87.17675    299.38412   -2025952.5   -2025952.5   -2009029.7   -173.20619      5418317    100.01578     100.0137      541.672     30081.29 
11360000     89.67675    299.38715   -2025945.4   -2025945.4   -2009022.5    374.83111    5418595.2    100.02944    100.00517      541.672    29619.401 
11370000     92.17675    299.55685   -2025961.6   -2025961.6     -2009029    68.257246    5418549.5    100.02016    100.01361      541.672    29156.315 
11380000     94.67675    299.96775     -2025961     -2025961   -2009005.3   -210.16102    5418212.8    100.02179    100.00577      541.672    28694.502 
11390000     97.17675    300.46852   -2025962.4   -2025962.4   -2008978.3    307.39904    5418122.2    100.01588       100.01      541.672     28231.89 
11400000     99.67675    300.01764     -2025938     -2025938   -2008979.4    232.21989    5418326.9    100.02036     100.0093      541.672    27770.153 
11410000    102.17675    299.71618   -2025953.7   -2025953.7   -2009012.1   -142.70452    5417917.2    100.01796    100.00414      541.672    27309.063 
11420000    104.67675     300.0799   -2025945.6   -2025945.6   -2008983.4    143.85635    5418929.1    100.02796    100.01282      541.672    26847.099 
11430000    107.17675    299.72322   -2025970.1   -2025970.1   -2009028.2   -439.31089    5419152.2     100.0303     100.0146      541.672    26384.567 
11440000    109.67675    300.10008   -2025973.9   -2025973.9   -2009010.6   -184.89629    5418295.5    100.02448     100.0046      541.672    25922.508 
11450000    112.17675    299.64854   -2025953.9   -2025953.9   -2009016.1   -262.60311    5419146.9    100.02949    100.01531      541.672    25460.283 
11460000    114.67675    299.90983   -2025957.4   -2025957.4   -2009004.9    295.94689    5418494.8    100.02637    100.00639      541.672    24997.643 
11470000    117.17675     299.7603   -2025958.5   -2025958.5   -2009014.4   -209.97234    5418798.3    100.03304    100.00532      541.672    24536.005 
11480000    119.67675    300.08977   -2025943.7   -2025943.7   -2008981.1   -379.21016    5419203.1    100.03623    100.00961      541.672    24074.497 
11490000    122.17675    300.17557   -2025963.9   -2025963.9   -2008996.4    380.79329    5418006.9    100.01993    100.00383      541.672    23613.298 
11500000    124.67675    299.85282   -2025961.7   -2025961.7   -2009012.4    265.76373    5417643.4    100.01603    100.00101      541.672    23152.275 
11510000    127.17675    299.80325   -2025954.3   -2025954.3   -2009007.8    230.17373    5418373.6    100.01529    100.01524      541.672     22691.12 
11520000    129.67675    300.79182   -2025985.7   -2025985.7   -2008983.3   -329.30806    5418582.1    100.03289    100.00148      541.672    22229.297 
11530000    132.17675    299.56879   -2025959.9   -2025959.9   -2009026.7    131.94649    5418790.9    100.02554    100.01269      541.672    21767.462 
11540000    134.67675    299.56121   -2025976.1   -2025976.1   -2009043.3    174.78617    5418929.7    100.02717    100.01362      541.672    21305.157 
11550000    137.17675    299.85997   -2025940.2   -2025940.2   -2008990.5    26.194258    5419150.1    100.04317    100.00169      541.672    20843.039 
11560000    139.67675    299.40893   -2025954.6   -2025954.6   -2009030.4     296.3661    5418620.1    100.02792    100.00716      541.672    20381.139 
11570000    142.17675    300.16766   -2025958.7   -2025958.7   -2008991.6    366.98483    5418578.5    100.02845    100.00586      541.672    19919.364 
11580000    144.67675     299.8811   -2025972.1   -2025972.1   -2009021.2   -59.385041    5418022.3    100.02448    99.999559      541.672    19458.048 
11590000    147.17675    300.39868   -2025981.4   -2025981.4   -2009001.3   -430.83968    5418647.9    100.02894    100.00665      541.672    18996.711 
11600000    149.67675    300.18679     -2025970     -2025970   -2009001.9   -191.08472    5418537.8     100.0272    100.00636      541.672    18535.221 
11610000    152.17675    300.12823   -2025950.4   -2025950.4   -2008985.5    153.56808    5417906.3    100.02355    99.998351      541.672    18073.657 
11620000    154.67675    299.46968   -2025941.2   -2025941.2   -2009013.6    241.98613    5418277.4     100.0146    100.01415      541.672    17611.905 
11630000    157.17675      300.112   -2025970.4   -2025970.4   -2009006.5   -354.03545    5418836.3    100.02582    100.01325      541.672    17149.977 
11640000    159.67675    300.01838   -2025968.7   -2025968.7     -2009010   -152.41414    5418926.2    100.04061    100.00012      541.672    16688.326 
11650000    162.17675    299.96734   -2025971.9   -2025971.9   -2009016.1    414.55273    5418367.4    100.02708    100.00333      541.672    16226.407 
11660000    164.67675    299.88921   -2025958.1   -2025958.1   -2009006.8    40.544873    5418234.1    100.02525     100.0027      541.672    15764.713 
11670000    167.17675    299.97788   -2025963.1   -2025963.1   -2009006.7   -591.23467    5418889.7    100.02737    100.01268      541.672    15302.996 
11680000    169.67675    300.15531   -2025944.7   -2025944.7   -2008978.3   -131.65442    5418392.9    100.02622    100.00466      541.672    14841.119 
11690000    172.17675    300.06435   -2025939.5   -2025939.5   -2008978.2   -1.0256021    5417627.1    100.01055     100.0062      541.672    14379.508 
11700000    174.67675    299.83807   -2025960.7   -2025960.7   -2009012.3   -326.02088    5418109.3    100.02322    100.00242      541.672    13917.961 
11710000    177.17675     300.3639   -2025970.2   -2025970.2     -2008992   -222.80445      5418587    100.02439    100.01007      541.672    13456.298 
11720000    179.67675    299.92898   -2025972.2   -2025972.2   -2009018.6    280.44127    5418402.3    100.02365     100.0074      541.672    12994.528 
11730000    182.17675    299.94459   -2025960.9   -2025960.9   -2009006.5    305.24301    5418931.7     100.0252    100.01563      541.672     12532.58 
11740000    184.67675    299.63371   -2025967.9   -2025967.9     -2009031    50.829865    5418649.3    100.02898    100.00664      541.672     12070.68 
11750000    187.17675    299.91786   -2025974.9   -2025974.9     -2009022   -61.392872    5418840.3    100.02327    100.01587      541.672    11608.895 
11760000    189.67675    300.05776   -2025959.5   -2025959.5   -2008998.7   -232.28768    5418585.3    100.02458    100.00985      541.672    11147.045 
11770000    192.17675    299.88939   -2025957.8   -2025957.8   -2009006.5   -114.07432    5418258.6    100.02467    100.00374      541.672    10685.254 
11780000    194.67675    300.40995   -2025964.3   -2025964.3   -2008983.6    261.80237    5417863.5    100.02433    99.996778      541.672    10223.475 
11790000    197.17675    300.33345   -2025967.6   -2025967.6   -2008991.1     231.1902      5418355    100.01325    100.01693      541.672    9761.5307 
11800000    199.67675    300.39608   -2025958.3   -2025958.3   -2008978.3   -93.289821    5418213.6    100.01782    100.00975      541.672    9299.5765 
11810000    202.17675    300.23771   -2025967.4   -2025967.4   -2008996.3    15.969669    5418479.5    100.02454    100.00794      541.672    8837.6222 
11820000    204.67675    299.82657   -2025968.8   -2025968.8     -2009021   -176.44525    5419206.5    100.04059    100.00531      541.672    8375.5746 
11830000    207.17675    299.85373   -2025949.4   -2025949.4     -2009000    259.11377    5418046.5    100.02295    100.00154      541.672    7913.5205 
11840000    209.67675    300.18313   -2025971.3   -2025971.3   -2009003.3     74.92614    5418981.5    100.03614    100.00561      541.672    7451.5267 
11850000    212.17675     299.6521   -2025965.1   -2025965.1   -2009027.2   -101.82362    5418581.9    100.02893    100.00544      541.672    6989.4654 
11860000    214.67675    300.36405   -2025984.3   -2025984.3   -2009006.2   -28.128965    5418371.1    100.02099    100.00949      541.672    6527.5062 
11870000    217.17675    300.06679     -2025963     -2025963   -2009001.6   -72.718155    5418602.2    100.02698    100.00777      541.672    6065.5276 
11880000    219.67675    299.85975   -2025980.4   -2025980.4   -2009030.7   -331.75219    5418772.3    100.02451    100.01337      541.672    5603.5205 
11890000    222.17675    299.71321   -2025961.2   -2025961.2   -2009019.8    95.303978      5418512    100.02054    100.01254      541.672    5141.5446 
11900000    224.67675    299.64814   -2025975.9   -2025975.9   -2009038.2    -374.8505    5418279.3    100.02809     100.0007      541.672    4679.4942 
11910000    227.17675    299.72914   -2025938.1   -2025938.1   -2008995.8    3.0875794    5418252.2    100.02117    100.00712      541.672    4217.4695 
11920000    229.67675     300.2292   -2025989.5   -2025989.5   -2009018.9   -98.574853    5418932.2    100.03697    100.00387      541.672    3755.4731 
11930000    232.17675    300.35626   -2025957.9   -2025957.9   -2008980.2    459.85963    5419048.9    100.02879     100.0142      541.672    3293.5099 
11940000    234.67675    300.25586     -2025978     -2025978   -2009005.9   -400.39183    5418621.1    100.02521    100.00989      541.672     2831.513 
11950000    237.17675    299.67525   -2025985.4   -2025985.4   -2009046.2    318.37054    5418857.4    100.02745      100.012      541.672    2369.5414 
11960000    239.67675    300.35655   -2025967.4   -2025967.4   -2008989.6    64.341275    5418187.6    100.02586    100.00123      541.672    1907.5578 
11970000    242.17675    300.11094   -2025966.7   -2025966.7   -2009002.8   -607.12768    5418387.3    100.02412    100.00666      541.672    1445.5992 
11980000    244.67675    299.89808   -2025958.2   -2025958.2   -2009006.4    157.91828      5418359    100.03347    99.996791      541.672    983.64761 
11990000    247.17675      299.829     -2025951     -2025951   -2009003.1   -248.90287    5418651.4    100.02806     100.0076      541.672    521.69396 
12000000    249.67675    299.98889   -2025976.8   -2025976.8   -2009019.8   -58.971741    5418386.2    100.02184    100.00892      541.672    59.732235 
12001293          250      299.613   -2025958.9   -2025958.9   -2009023.2   -44.441239    5418836.5    100.03136    100.00771      541.672            0 
Loop time of 46196.7 on 96 procs for 1000000 steps with 437300 atoms

Performance: 0.468 ns/day, 51.330 hours/ns, 21.647 timesteps/s
100.0% CPU use with 96 MPI tasks x 1 OpenMP threads

MPI task timing breakdown:
Section |  min time  |  avg time  |  max time  |%varavg| %total
---------------------------------------------------------------
Pair    | 14865      | 22968      | 45212      |5889.5 | 49.72
Neigh   | 39.688     | 55.96      | 72.384     | 124.7 |  0.12
Comm    | 425.65     | 5414       | 15297      |6988.1 | 11.72
Output  | 1.8524     | 1.8532     | 1.8564     |   0.0 |  0.00
Modify  | 417.06     | 17689      | 25705      |7760.4 | 38.29
Other   |            | 67.74      |            |       |  0.15

Nlocal:        4555.21 ave        5409 max        3810 min
Histogram: 18 6 3 13 8 4 23 11 4 6
Nghost:        8888.54 ave       10308 max        7785 min
Histogram: 18 9 9 6 15 17 1 4 8 9
Neighs:         0.00000 ave           0 max           0 min
Histogram: 96 0 0 0 0 0 0 0 0 0
FullNghs:      834138.0 ave 1.14987e+06 max      613575 min
Histogram: 42 6 0 0 0 0 14 22 4 8

Total # of neighbors = 80077220
Ave neighs/atom = 183.11736
Neighbor list builds = 2385
Dangerous builds = 0
System init for write_restart ...
System init for write_data ...
Total wall time: 12:49:57
