LAMMPS (24 Mar 2022)
OMP_NUM_THREADS environment is not set. Defaulting to 1 thread. (src/comm.cpp:98)
  using 1 OpenMP thread(s) per MPI task
# Compute elastic constant tensor for a crystal
#
# Written by Aidan Thompson (Sandia, athomps@sandia.gov)
#
#  This script uses the following three include files.
#
#   init.mod      (must be modified for different crystal structures)
# 	       	  Define units, deformation parameters and initial
#		  configuration of the atoms and simulation cell.
#
#
#   potential.mod    (must be modified for different pair styles)
# 		     Define pair style and other attributes
#		     not stored in restart file
#
#
#   displace.mod    (displace.mod should not need to be modified)
# 		    Perform positive and negative box displacements
# 		    in direction ${dir} and size ${up}.
# 		    It uses the resultant changes
#		    in stress to compute one
# 		    row of the elastic stiffness tensor
#
#		    Inputs variables:
#		    	   dir = the Voigt deformation component
#		    		    (1,2,3,4,5,6)
#		    Global constants:
#       	    	   up = the deformation magnitude (strain units)
#       		   cfac = conversion from LAMMPS pressure units to
#               	   output units for elastic constants
#
#
#  To run this on a different system, it should only be necessary to
#  modify the files init.mod and potential.mod. In order to calculate
#  the elastic constants correctly, care must be taken to specify
#  the correct units in init.mod (units, cfac and cunits). It is also
#  important to verify that the minimization of energy w.r.t atom
#  positions in the deformed cell is fully converged.
#  One indication of this is that the elastic constants are insensitive
#  to the choice of the variable ${up} in init.mod. Another is to check
#  the final max and two-norm forces reported in the log file. If you know
#  that minimization is not required, you can set maxiter = 0.0 in
#  init.mod.
#

include init.mod
# NOTE: This script can be modified for different atomic structures,
# units, etc. See in.elastic for more info.
#

# Define the finite deformation size. Try several values of this
# variable to verify that results do not depend on it.
variable up equal 1.0e-6

# Define the amount of random jiggle for atoms
# This prevents atoms from staying on saddle points
variable atomjiggle equal 1.0e-5

# Uncomment one of these blocks, depending on what units
# you are using in LAMMPS and for output

# metal units, elastic constants in eV/A^3
#units		metal
#variable cfac equal 6.2414e-7
#variable cunits string eV/A^3

# metal units, elastic constants in GPa
units		metal
variable cfac equal 1.0e-4
variable cunits string GPa

# real units, elastic constants in GPa
#units		real
#variable cfac equal 1.01325e-4
#variable cunits string GPa

# Define minimization parameters
variable etol equal 0.0
variable ftol equal 1.0e-10
variable maxiter equal 100
variable maxeval equal 1000
variable dmax equal 1.0e-2

# generate the box and atom positions using a diamond lattice
variable a equal 4.064

boundary	p p p

lattice         fcc $a
lattice         fcc 4.064
Lattice spacing in x,y,z = 4.064 4.064 4.064
region          box prism 0 20.0 0 20.0 0 20.0 0.0 0.0 0.0
create_box	1 box
Created triclinic box = (0 0 0) to (81.28 81.28 81.28) with tilt (0 0 0)
  2 by 1 by 3 MPI processor grid
create_atoms	1 box
Created 32000 atoms
  using lattice units in triclinic box = (0 0 0) to (81.28 81.28 81.28) with tilt (0 0 0)
  create_atoms CPU = 0.002 seconds

# Need to set mass to something, just to satisfy LAMMPS

include potential.mod
# NOTE: This script can be modified for different pair styles
# See in.elastic for more info.

# Choose potential
pair_style eam/alloy
pair_coeff * * Mishin-Ni-Al-2009.eam.alloy Al


# Setup neighbor style
neighbor 1.0 nsq
neigh_modify once no every 1 delay 0 check yes

# Setup minimization style
min_style	     cg
min_modify	     dmax ${dmax} line quadratic
min_modify	     dmax 0.01 line quadratic

# Setup output
thermo		1
thermo_style custom step temp pe press pxx pyy pzz pxy pxz pyz lx ly lz vol
thermo_modify norm no

dump   1 all atom 1 generic.lammpstrj


# Compute initial state
fix 3 all box/relax  aniso 0.0
minimize ${etol} ${ftol} ${maxiter} ${maxeval}
minimize 0 ${ftol} ${maxiter} ${maxeval}
minimize 0 1e-10 ${maxiter} ${maxeval}
minimize 0 1e-10 100 ${maxeval}
minimize 0 1e-10 100 1000
Neighbor list info ...
  update every 1 steps, delay 0 steps, check yes
  max neighbors/atom: 2000, page size: 100000
  master list distance cutoff = 7.28721
  ghost atom cutoff = 7.28721
  1 neighbor lists, perpetual/occasional/extra = 1 0 0
  (1) pair eam/alloy, perpetual
      attributes: half, newton on
      pair build: half/nsq/newton
      stencil: none
      bin: none
Per MPI rank memory allocation (min/avg/max) = 6.715 | 6.736 | 6.767 Mbytes
   Step          Temp          PotEng         Press           Pxx            Pyy            Pzz            Pxy            Pxz            Pyz             Lx             Ly             Lz           Volume    
         0   0             -107505.99     -8063.7776     -8063.7776     -8063.7776     -8063.7776     -1.6517968e-10 -3.348645e-11  -6.7722873e-10  81.28          81.28          81.28          536971.31    
         1   0             -107506.79     -7833.1889     -7833.1889     -7833.1889     -7833.1889     -1.0281696e-10  4.1072708e-10  3.1468046e-10  81.271872      81.271872      81.271872      536810.24    
         2   0             -107507.57     -7602.2928     -7602.2928     -7602.2928     -7602.2928     -1.5178181e-11 -3.0283175e-10  2.8644706e-11  81.263744      81.263744      81.263744      536649.19    
         3   0             -107508.32     -7371.2394     -7371.2394     -7371.2394     -7371.2394     -7.2836815e-11 -1.0246596e-09 -6.5123035e-10  81.255616      81.255616      81.255616      536488.18    
         4   0             -107509.05     -7140.0102     -7140.0102     -7140.0102     -7140.0102      8.0234756e-12 -6.7258164e-10 -1.2391282e-10  81.247488      81.247488      81.247488      536327.21    
         5   0             -107509.76     -6908.5987     -6908.5987     -6908.5987     -6908.5987     -1.3212452e-10 -1.8070342e-09 -1.2467523e-09  81.23936       81.23936       81.23936       536166.26    
         6   0             -107510.44     -6677.0407     -6677.0407     -6677.0407     -6677.0407      7.2392694e-11 -1.4292062e-09 -5.9168045e-10  81.231232      81.231232      81.231232      536005.34    
         7   0             -107511.1      -6445.3109     -6445.3109     -6445.3109     -6445.3109     -3.3052295e-11 -2.6533191e-10 -1.89817e-10    81.223104      81.223104      81.223104      535844.46    
         8   0             -107511.73     -6213.3643     -6213.3643     -6213.3643     -6213.3643     -8.6143473e-11  1.017868e-09   4.2715108e-10  81.214976      81.214976      81.214976      535683.61    
         9   0             -107512.34     -5981.0871     -5981.0871     -5981.0871     -5981.0871      4.4764054e-11  1.3627341e-09  3.0355906e-10  81.206848      81.206848      81.206848      535522.8     
        10   0             -107512.93     -5748.5466     -5748.5466     -5748.5466     -5748.5466     -1.9544636e-10  9.9624749e-10 -2.0596028e-10  81.19872       81.19872       81.19872       535362.01    
        11   0             -107513.5      -5515.8343     -5515.8343     -5515.8343     -5515.8343      7.1873969e-11 -5.7588513e-10 -2.0191821e-10  81.190592      81.190592      81.190592      535201.26    
        12   0             -107514.04     -5283.0039     -5283.0039     -5283.0039     -5283.0039     -8.6449144e-11  1.2356078e-09  9.6035839e-10  81.182464      81.182464      81.182464      535040.54    
        13   0             -107514.56     -5050.0504     -5050.0504     -5050.0504     -5050.0504     -9.1875819e-11  8.5324739e-10  1.7707126e-10  81.174336      81.174336      81.174336      534879.85    
        14   0             -107515.05     -4816.9049     -4816.9049     -4816.9049     -4816.9049     -7.0916848e-11  1.3334539e-09  4.7226714e-10  81.166208      81.166208      81.166208      534719.19    
        15   0             -107515.52     -4583.5327     -4583.5327     -4583.5327     -4583.5327      4.9066801e-11  1.0448205e-09  3.6784128e-10  81.15808       81.15808       81.15808       534558.56    
        16   0             -107515.97     -4349.8063     -4349.8063     -4349.8063     -4349.8063     -2.3500133e-10 -5.1840253e-10 -1.7574107e-10  81.149952      81.149952      81.149952      534397.97    
        17   0             -107516.4      -4115.8585     -4115.8585     -4115.8585     -4115.8585      5.4610041e-11 -4.9437244e-11  3.7289692e-10  81.141824      81.141824      81.141824      534237.41    
        18   0             -107516.8      -3881.7178     -3881.7178     -3881.7178     -3881.7178      1.2189837e-10 -2.6202154e-10  1.6405655e-10  81.133696      81.133696      81.133696      534076.88    
        19   0             -107517.17     -3647.4006     -3647.4006     -3647.4006     -3647.4006      1.797442e-11  -4.9341169e-10  6.5571718e-11  81.125568      81.125568      81.125568      533916.39    
        20   0             -107517.53     -3412.8981     -3412.8981     -3412.8981     -3412.8981      1.7991021e-10 -1.1261917e-09 -8.7555662e-11  81.11744       81.11744       81.11744       533755.92    
        21   0             -107517.86     -3178.2137     -3178.2137     -3178.2137     -3178.2137     -1.0438047e-10 -2.9434545e-10 -6.1110844e-11  81.109312      81.109312      81.109312      533595.49    
        22   0             -107518.16     -2943.3265     -2943.3265     -2943.3265     -2943.3265     -2.4030199e-11  5.5949175e-10 -4.8707303e-10  81.101184      81.101184      81.101184      533435.09    
        23   0             -107518.45     -2708.1623     -2708.1623     -2708.1623     -2708.1623      1.4484363e-11  7.9450522e-10  3.9937403e-11  81.093056      81.093056      81.093056      533274.73    
        24   0             -107518.71     -2472.7155     -2472.7155     -2472.7155     -2472.7155     -1.5898087e-11  6.0295282e-10  2.6052469e-10  81.084928      81.084928      81.084928      533114.39    
        25   0             -107518.94     -2237.0176     -2237.0176     -2237.0176     -2237.0176      3.5800144e-11  5.8233976e-10 -4.5004503e-10  81.0768        81.0768        81.0768        532954.09    
        26   0             -107519.15     -2001.2456     -2001.2456     -2001.2456     -2001.2456      8.279137e-11   6.4035511e-10  1.7661073e-10  81.068672      81.068672      81.068672      532793.82    
        27   0             -107519.34     -1765.2941     -1765.2941     -1765.2941     -1765.2941     -1.5084756e-10 -4.771594e-10  -4.0923499e-10  81.060544      81.060544      81.060544      532633.58    
        28   0             -107519.51     -1529.1076     -1529.1076     -1529.1076     -1529.1076     -9.8683591e-11 -4.2009075e-10 -6.6725806e-10  81.052416      81.052416      81.052416      532473.37    
        29   0             -107519.65     -1292.5974     -1292.5974     -1292.5974     -1292.5974      1.4712626e-10  5.4032197e-11  8.3566519e-12  81.044288      81.044288      81.044288      532313.2     
        30   0             -107519.76     -1055.8245     -1055.8245     -1055.8245     -1055.8245     -1.2265459e-10 -4.6150302e-10 -3.3755818e-10  81.03616       81.03616       81.03616       532153.06    
        31   0             -107519.86     -818.80978     -818.80978     -818.80978     -818.80978      1.8501627e-10 -1.1887178e-11 -1.033509e-09   81.028032      81.028032      81.028032      531992.94    
        32   0             -107519.93     -581.60709     -581.60709     -581.60709     -581.60709      2.8534603e-10 -1.0579669e-10 -4.6896241e-10  81.019904      81.019904      81.019904      531832.87    
        33   0             -107519.97     -344.21812     -344.21812     -344.21812     -344.21812      6.1125748e-11 -5.7180597e-11 -2.467218e-10   81.011776      81.011776      81.011776      531672.82    
        34   0             -107520        -106.66181     -106.66181     -106.66181     -106.66181     -1.0833957e-10  1.3753819e-10 -4.2435186e-10  81.003648      81.003648      81.003648      531512.81    
        35   0             -107520        -0.0027982705  -0.0027982711  -0.0027982704  -0.0027982699   3.2217611e-11 -6.9678082e-10  7.7617345e-11  81             81             81             531441       
        36   0             -107520        -2.0678206e-07 -2.0712565e-07 -2.0652877e-07 -2.0669174e-07  1.5411543e-10 -5.5879562e-10  9.2501122e-11  81             81             81             531441       
        37   0             -107520        -8.5456643e-11  7.3277929e-10  4.7778032e-10 -1.4669295e-09  1.7870706e-11  2.2780465e-10  8.9135302e-11  81             81             81             531441       
        38   0             -107520         1.1611907e-09 -1.7685412e-10  3.5229444e-10  3.3081318e-09  2.5052192e-11 -8.5256711e-11 -1.1595475e-10  81             81             81             531441       
        39   0             -107520        -1.4697714e-09 -1.4984617e-09 -1.6468255e-09 -1.2640271e-09  1.5989918e-10  9.2351441e-10  2.8277434e-10  81             81             81             531441       
        40   0             -107520        -1.5488445e-09 -1.0720924e-09 -1.0727779e-09 -2.5016633e-09  8.4287398e-11 -5.1089763e-11  1.5704345e-10  81             81             81             531441       
        41   0             -107520         7.837191e-10   7.0604553e-10  4.9727369e-10  1.1478381e-09 -4.0668308e-11 -7.4978779e-10 -5.4647035e-11  81             81             81             531441       
        42   0             -107520        -7.8680377e-10 -3.6673239e-10 -5.260639e-10  -1.467615e-09   2.7285361e-11 -1.0359012e-09 -4.0953479e-11  81             81             81             531441       
        43   0             -107520         8.256477e-10   4.3733694e-10  4.372941e-10   1.6023121e-09 -7.1086532e-11 -2.8757003e-10 -1.2720226e-11  81             81             81             531441       
        44   0             -107520        -1.4840523e-09 -1.233866e-10  -6.7721248e-10 -3.6515578e-09  5.6295135e-11 -1.768327e-11   9.0187623e-11  81             81             81             531441       
        45   0             -107520         2.3781339e-09  1.8247507e-09  1.5470451e-09  3.7626057e-09 -2.6846224e-11 -1.14229e-10    1.4101899e-11  81             81             81             531441       
        46   0             -107520         1.4178034e-10 -8.0612577e-10 -1.0008024e-09  2.2322692e-09  2.2229938e-11  2.8249319e-10 -2.9664864e-10  81             81             81             531441       
        47   0             -107520        -1.6760013e-09 -1.5697517e-09 -9.9531855e-10 -2.4629336e-09 -1.5893522e-10  9.9242668e-10  3.1583006e-10  81             81             81             531441       
        48   0             -107520        -1.9721291e-09 -1.1392696e-09 -7.5437195e-10 -4.0227458e-09 -4.0164908e-12  1.1156205e-10 -2.7170489e-10  81             81             81             531441       
        49   0             -107520         3.418837e-11   8.3148857e-10  1.2356654e-09 -1.9645888e-09  4.3752973e-11  9.3718118e-12 -9.0644164e-11  81             81             81             531441       
        50   0             -107520         1.073492e-10   3.4342603e-10 -7.2104043e-11  5.0725601e-11 -1.5950288e-10  5.4262255e-10 -1.2116146e-10  81             81             81             531441       
        51   0             -107520        -2.3869023e-10 -1.1653179e-11 -4.3193878e-10 -2.7247874e-10 -2.2386313e-10  9.4986258e-10  3.4041098e-11  81             81             81             531441       
        52   0             -107520        -5.5905268e-10 -3.5302276e-10 -3.9702208e-10 -9.2711318e-10 -2.5023273e-10  4.0971419e-10  1.8981802e-10  81             81             81             531441       
        53   0             -107520         5.8038827e-10 -2.2620876e-10  5.0866982e-10  1.4587038e-09 -1.4897968e-10 -1.2194066e-10  1.4847762e-10  81             81             81             531441       
        54   0             -107520        -5.7043452e-10 -8.2189183e-10 -2.6493844e-10 -6.2447328e-10 -6.1264873e-12 -1.3973104e-10  3.5911578e-10  81             81             81             531441       
        55   0             -107520        -2.3736211e-10  2.358055e-10  -1.2874192e-10 -8.1914991e-10  1.3382947e-11  1.2668547e-10  2.5467765e-10  81             81             81             531441       
        56   0             -107520        -4.5871538e-10  6.635457e-10   3.0499624e-10 -2.3446881e-09  7.9756796e-11 -2.669092e-10   1.155772e-10   81             81             81             531441       
        57   0             -107520         2.0719237e-09  1.9604759e-09  1.6538945e-09  2.6014008e-09 -2.8833049e-11  6.8794454e-11  2.3951673e-11  81             81             81             531441       
        58   0             -107520        -1.0584399e-09 -6.9302139e-10 -3.6073443e-10 -2.121564e-09  -1.7437996e-10 -2.118565e-11  -7.9335065e-11  81             81             81             531441       
        59   0             -107520         7.1078677e-10  5.25764e-10    8.0972454e-10  7.9687177e-10 -4.2087468e-11 -2.9666337e-10 -2.8106064e-11  81             81             81             531441       
        60   0             -107520         2.3109281e-10  1.6451546e-11 -1.0427881e-10  7.8110571e-10 -9.866108e-11   5.3328287e-10 -3.1509102e-10  81             81             81             531441       
        61   0             -107520        -6.0018154e-10 -4.0374837e-10 -4.2971096e-11 -1.3538252e-09 -2.710328e-11   2.732499e-10   6.554913e-11   81             81             81             531441       
        62   0             -107520         8.3587279e-10 -1.0762053e-10  7.7917779e-10  1.8360611e-09  2.8961576e-11  3.7503313e-10  6.4273224e-11  81             81             81             531441       
        63   0             -107520         8.3543008e-11 -3.0915197e-10 -8.4476976e-10  1.4045508e-09 -1.1104794e-10  2.7216813e-10 -4.6014659e-10  81             81             81             531441       
        64   0             -107520        -1.1143352e-09 -7.0467457e-10 -8.6636242e-10 -1.7719686e-09 -1.2777796e-11 -1.3196582e-10 -2.8878569e-10  81             81             81             531441       
        65   0             -107520         2.5698401e-10  6.2995713e-10  1.7629717e-10 -3.5302276e-11  2.3959706e-11  3.539653e-10   3.453111e-11   81             81             81             531441       
        66   0             -107520         4.9813054e-10 -1.3572526e-10  1.9403399e-10  1.4360829e-09  1.4103774e-10 -3.7072746e-10  1.8110089e-10  81             81             81             531441       
        67   0             -107520        -1.3896273e-09 -1.0008024e-09 -8.0111319e-10 -2.3669662e-09  7.4331856e-12 -1.0081285e-09 -2.7268625e-10  81             81             81             531441       
        68   0             -107520         4.7412442e-10  6.8479561e-10  7.3586396e-10  1.7137027e-12 -8.2327351e-11 -3.0084052e-10  1.3765451e-10  81             81             81             531441       
        69   0             -107520         4.7940834e-10  1.6520094e-10  5.6218018e-10  7.108439e-10  -1.3602515e-12 -9.2925531e-11  2.1082962e-10  81             81             81             531441       
        70   0             -107520        -1.4406528e-10 -2.6528118e-10 -4.2979665e-10  2.62882e-10    4.5252463e-11 -5.6706424e-10 -6.7166437e-11  81             81             81             531441       
        71   0             -107520        -8.2569054e-10 -7.3003737e-10 -5.9919616e-10 -1.1478381e-09  1.6693071e-10 -8.7033607e-10  9.6583215e-12  81             81             81             531441       
        72   0             -107520         2.0010336e-10  5.1205438e-10  3.2680311e-10 -2.3854742e-10 -3.8435139e-11 -1.0388252e-10  2.0058489e-10  81             81             81             531441       
        73   0             -107520         5.5091259e-10  1.1790275e-10  3.1913429e-10  1.2157007e-09  2.9673834e-11 -1.5937435e-10  1.9158259e-10  81             81             81             531441       
        74   0             -107520        -4.9815911e-10 -5.511268e-10  -8.3607272e-10 -1.0727779e-10 -5.3976281e-11 -2.8935871e-10  2.4208193e-10  81             81             81             531441       
        75   0             -107520        -7.3766334e-10  6.5806185e-11 -3.2517509e-10 -1.9536211e-09  7.7539694e-11  3.1327557e-10  2.6965514e-10  81             81             81             531441       
        76   0             -107520         5.7363343e-10  9.9326211e-10  9.644719e-10  -2.3683372e-10  8.8464549e-11  3.6824259e-10  5.6001128e-10  81             81             81             531441       
        77   0             -107520         2.6473851e-10  6.854811e-12   2.0573001e-10  5.8163071e-10  9.7515041e-11  2.0036398e-10  4.1009844e-10  81             81             81             531441       
        78   0             -107520        -5.9508328e-11 -4.4282079e-10 -3.536654e-10   6.1796121e-10  7.8600047e-11  2.7266082e-10  5.7633296e-10  81             81             81             531441       
        79   0             -107520        -3.1089424e-11 -7.7390816e-10 -7.8320499e-10  1.4638449e-09 -7.406409e-12   4.792691e-10   3.2487654e-10  81             81             81             531441       
        80   0             -107520        -1.4695429e-09 -8.1435154e-10 -1.5703943e-09 -2.0238829e-09  4.9252888e-11  2.5737673e-10  3.222377e-10   81             81             81             531441       
        81   0             -107520        -1.7889628e-10  1.7959605e-10  3.4346887e-10 -1.0597538e-09  1.1922016e-10  5.7282656e-10  3.3185452e-10  81             81             81             531441       
        82   0             -107520         4.0683303e-10  5.1616726e-10  8.0098466e-10 -9.6652834e-11  9.1442107e-11  5.0922677e-10  5.4319021e-10  81             81             81             531441       
        83   0             -107520        -7.3059432e-10 -6.5806185e-11 -1.0552125e-10 -2.0204555e-09  8.7607697e-11  3.6994558e-10  1.9966913e-10  81             81             81             531441       
        84   0             -107520        -6.4696563e-10 -1.2420917e-09 -1.5344066e-09  8.3560145e-10  8.9000081e-11  7.715411e-10   8.3684791e-10  81             81             81             531441       
        85   0             -107520         4.6635564e-10  5.401591e-10   2.755634e-10   5.8334441e-10  1.0059435e-10  6.344556e-10   6.4741146e-10  81             81             81             531441       
        86   0             -107520         2.0600135e-10  8.2257731e-12 -2.4535939e-10  8.5513767e-10  5.096659e-11   4.5292092e-10  3.9008962e-10  81             81             81             531441       
        87   0             -107520        -3.0546751e-11 -4.4419175e-10 -4.4226383e-10  7.9481533e-10  5.4110164e-11  1.3696769e-10  2.8545468e-10  81             81             81             531441       
        88   0             -107520        -9.7359737e-10 -6.237878e-11  -3.5126622e-10 -2.5071471e-09 -1.6901393e-11  6.6945797e-10  4.386838e-10   81             81             81             531441       
        89   0             -107520         9.7759601e-10  1.1331003e-09  1.2255974e-09  5.7409042e-10  1.2678187e-10  1.336581e-10   3.1318453e-10  81             81             81             531441       
        90   0             -107520         1.0960129e-09  1.0481006e-09  7.3256508e-10  1.5073729e-09 -3.093769e-11   7.2214362e-10  5.4631504e-10  81             81             81             531441       
        91   0             -107520        -1.723985e-10  -4.894335e-10  -5.7546138e-10  5.4769939e-10  1.8187206e-10 -2.8875891e-11  5.2578007e-10  81             81             81             531441       
        92   0             -107520        -9.7576806e-10 -4.0991769e-10 -5.6616454e-10 -1.9512219e-09  2.9829138e-11  1.0459156e-09  5.0763222e-10  81             81             81             531441       
        93   0             -107520        -1.1957361e-10  5.0519957e-10  6.3933965e-10 -1.50326e-09    1.3740147e-10  6.0225941e-10  4.9961932e-10  81             81             81             531441       
        94   0             -107520         2.0513022e-09  1.4621312e-09  1.0265079e-09  3.6652674e-09  1.4440623e-10  6.1717933e-10  6.2907885e-10  81             81             81             531441       
        95   0             -107520        -7.8597548e-10 -1.3805589e-09 -1.0846453e-09  1.0727779e-10  2.2278136e-12  5.9059552e-10  3.6533063e-10  81             81             81             531441       
        96   0             -107520        -8.7124647e-10 -1.26814e-09   -6.7862628e-10 -6.6697311e-10 -6.2673322e-11  2.0257037e-10  8.7767018e-11  81             81             81             531441       
        97   0             -107520        -7.5635698e-10 -4.0649029e-10  3.5357972e-10 -2.2161604e-09  5.311943e-11   4.010707e-10   2.9437932e-10  81             81             81             531441       
        98   0             -107520         1.9533355e-10  1.1214471e-09  1.2954736e-09 -1.83092e-09    5.1389661e-11  2.372193e-10   5.9606598e-10  81             81             81             531441       
        99   0             -107520         2.1369016e-09  2.5883766e-09  1.3813301e-09  2.4409982e-09  2.8982998e-11  1.2566796e-10  2.1395177e-10  81             81             81             531441       
       100   0             -107520         2.0671682e-09  2.1544671e-09  1.1525936e-09  2.8944439e-09  5.6064856e-11  8.4624783e-10  4.0901265e-10  81             81             81             531441       
Loop time of 2.00549 on 6 procs for 100 steps with 32000 atoms

99.4% CPU use with 6 MPI tasks x 1 OpenMP threads

Minimization stats:
  Stopping criterion = max iterations
  Energy initial, next-to-last, final = 
     -107505.994209158  -107519.999611652  -107519.999611652
  Force two-norm initial, final = 4681.0135 1.2623226e-09
  Force max component initial, final = 2702.5844 9.6340416e-10
  Final line search alpha, max atom move = 1 9.6340416e-10
  Iterations, force evaluations = 100 166

MPI task timing breakdown:
Section |  min time  |  avg time  |  max time  |%varavg| %total
---------------------------------------------------------------
Pair    | 1.2477     | 1.3151     | 1.4213     |   5.0 | 65.58
Neigh   | 0          | 0          | 0          |   0.0 |  0.00
Comm    | 0.044231   | 0.15014    | 0.2175     |  14.9 |  7.49
Output  | 0.46506    | 0.4654     | 0.46607    |   0.0 | 23.21
Modify  | 0          | 0          | 0          |   0.0 |  0.00
Other   |            | 0.07484    |            |       |  3.73

Nlocal:        5333.33 ave        5880 max        4940 min
Histogram: 2 0 0 0 1 2 0 0 0 1
Nghost:        7568.33 ave        8385 max        6810 min
Histogram: 1 0 1 1 0 1 1 0 0 1
Neighs:         229333 ave      257920 max      209880 min
Histogram: 2 0 0 0 1 2 0 0 0 1

Total # of neighbors = 1376000
Ave neighs/atom = 43
Neighbor list builds = 0
Dangerous builds = 0

variable tmp equal pxx
variable pxx0 equal ${tmp}
variable pxx0 equal 2.15446708187925e-09
variable tmp equal pyy
variable pyy0 equal ${tmp}
variable pyy0 equal 1.15259361883148e-09
variable tmp equal pzz
variable pzz0 equal ${tmp}
variable pzz0 equal 2.89444392403281e-09
variable tmp equal pyz
variable pyz0 equal ${tmp}
variable pyz0 equal 4.09012645607619e-10
variable tmp equal pxz
variable pxz0 equal ${tmp}
variable pxz0 equal 8.46247833177296e-10
variable tmp equal pxy
variable pxy0 equal ${tmp}
variable pxy0 equal 5.60648561291806e-11

variable tmp equal lx
variable lx0 equal ${tmp}
variable lx0 equal 81.0000000634528
variable tmp equal ly
variable ly0 equal ${tmp}
variable ly0 equal 81.0000000634529
variable tmp equal lz
variable lz0 equal ${tmp}
variable lz0 equal 81.0000000634525

# These formulas define the derivatives w.r.t. strain components
# Constants uses $, variables use v_
variable d1 equal -(v_pxx1-${pxx0})/(v_delta/v_len0)*${cfac}
variable d1 equal -(v_pxx1-2.15446708187925e-09)/(v_delta/v_len0)*${cfac}
variable d1 equal -(v_pxx1-2.15446708187925e-09)/(v_delta/v_len0)*0.0001
variable d2 equal -(v_pyy1-${pyy0})/(v_delta/v_len0)*${cfac}
variable d2 equal -(v_pyy1-1.15259361883148e-09)/(v_delta/v_len0)*${cfac}
variable d2 equal -(v_pyy1-1.15259361883148e-09)/(v_delta/v_len0)*0.0001
variable d3 equal -(v_pzz1-${pzz0})/(v_delta/v_len0)*${cfac}
variable d3 equal -(v_pzz1-2.89444392403281e-09)/(v_delta/v_len0)*${cfac}
variable d3 equal -(v_pzz1-2.89444392403281e-09)/(v_delta/v_len0)*0.0001
variable d4 equal -(v_pyz1-${pyz0})/(v_delta/v_len0)*${cfac}
variable d4 equal -(v_pyz1-4.09012645607619e-10)/(v_delta/v_len0)*${cfac}
variable d4 equal -(v_pyz1-4.09012645607619e-10)/(v_delta/v_len0)*0.0001
variable d5 equal -(v_pxz1-${pxz0})/(v_delta/v_len0)*${cfac}
variable d5 equal -(v_pxz1-8.46247833177296e-10)/(v_delta/v_len0)*${cfac}
variable d5 equal -(v_pxz1-8.46247833177296e-10)/(v_delta/v_len0)*0.0001
variable d6 equal -(v_pxy1-${pxy0})/(v_delta/v_len0)*${cfac}
variable d6 equal -(v_pxy1-5.60648561291806e-11)/(v_delta/v_len0)*${cfac}
variable d6 equal -(v_pxy1-5.60648561291806e-11)/(v_delta/v_len0)*0.0001

displace_atoms all random ${atomjiggle} ${atomjiggle} ${atomjiggle} 87287 units box
displace_atoms all random 1e-05 ${atomjiggle} ${atomjiggle} 87287 units box
displace_atoms all random 1e-05 1e-05 ${atomjiggle} 87287 units box
displace_atoms all random 1e-05 1e-05 1e-05 87287 units box
Displacing atoms ...

# Write restart
unfix 3
write_restart restart.equil
System init for write_restart ...

# uxx Perturbation

variable dir equal 1
include displace.mod
# NOTE: This script should not need to be
# modified. See in.elastic for more info.
#
# Find which reference length to use

if "${dir} == 1" then    "variable len0 equal ${lx0}"
variable len0 equal ${lx0}
variable len0 equal 81.0000000634528
if "${dir} == 2" then    "variable len0 equal ${ly0}"
if "${dir} == 3" then    "variable len0 equal ${lz0}"
if "${dir} == 4" then    "variable len0 equal ${lz0}"
if "${dir} == 5" then    "variable len0 equal ${lz0}"
if "${dir} == 6" then    "variable len0 equal ${ly0}"

# Reset box and simulation parameters

clear
OMP_NUM_THREADS environment is not set. Defaulting to 1 thread. (src/comm.cpp:98)
  using 1 OpenMP thread(s) per MPI task
box tilt large
read_restart restart.equil
Reading restart file ...
  restart file = 24 Mar 2022, LAMMPS = 24 Mar 2022
  restoring atom style atomic from restart
  triclinic box = (0.13999997 0.13999997 0.13999997) to (81.14 81.14 81.14) with tilt (0 0 0)
  2 by 3 by 1 MPI processor grid
  pair style eam/alloy stores no restart info
  32000 atoms
  read_restart CPU = 0.003 seconds
include potential.mod
# NOTE: This script can be modified for different pair styles
# See in.elastic for more info.

# Choose potential
pair_style eam/alloy
pair_coeff * * Mishin-Ni-Al-2009.eam.alloy Al


# Setup neighbor style
neighbor 1.0 nsq
neigh_modify once no every 1 delay 0 check yes

# Setup minimization style
min_style	     cg
min_modify	     dmax ${dmax} line quadratic
min_modify	     dmax 0.01 line quadratic

# Setup output
thermo		1
thermo_style custom step temp pe press pxx pyy pzz pxy pxz pyz lx ly lz vol
thermo_modify norm no

# Negative deformation

variable delta equal -${up}*${len0}
variable delta equal -1e-06*${len0}
variable delta equal -1e-06*81.0000000634528
variable deltaxy equal -${up}*xy
variable deltaxy equal -1e-06*xy
variable deltaxz equal -${up}*xz
variable deltaxz equal -1e-06*xz
variable deltayz equal -${up}*yz
variable deltayz equal -1e-06*yz
if "${dir} == 1" then    "change_box all x delta 0 ${delta} xy delta ${deltaxy} xz delta ${deltaxz} remap units box"
change_box all x delta 0 ${delta} xy delta ${deltaxy} xz delta ${deltaxz} remap units box
change_box all x delta 0 -8.10000000634528e-05 xy delta ${deltaxy} xz delta ${deltaxz} remap units box
change_box all x delta 0 -8.10000000634528e-05 xy delta -0 xz delta ${deltaxz} remap units box
change_box all x delta 0 -8.10000000634528e-05 xy delta -0 xz delta -0 remap units box
Changing box ...
  triclinic box = (0.13999997 0.13999997 0.13999997) to (81.139919 81.14 81.14) with tilt (0 0 0)
  triclinic box = (0.13999997 0.13999997 0.13999997) to (81.139919 81.14 81.14) with tilt (0 0 0)
  triclinic box = (0.13999997 0.13999997 0.13999997) to (81.139919 81.14 81.14) with tilt (0 0 0)
if "${dir} == 2" then    "change_box all y delta 0 ${delta} yz delta ${deltayz} remap units box"
if "${dir} == 3" then    "change_box all z delta 0 ${delta} remap units box"
if "${dir} == 4" then    "change_box all yz delta ${delta} remap units box"
if "${dir} == 5" then    "change_box all xz delta ${delta} remap units box"
if "${dir} == 6" then    "change_box all xy delta ${delta} remap units box"

# Relax atoms positions

minimize ${etol} ${ftol} ${maxiter} ${maxeval}
minimize 0 ${ftol} ${maxiter} ${maxeval}
minimize 0 1e-10 ${maxiter} ${maxeval}
minimize 0 1e-10 100 ${maxeval}
minimize 0 1e-10 100 1000
Neighbor list info ...
  update every 1 steps, delay 0 steps, check yes
  max neighbors/atom: 2000, page size: 100000
  master list distance cutoff = 7.28721
  ghost atom cutoff = 7.28721
  1 neighbor lists, perpetual/occasional/extra = 1 0 0
  (1) pair eam/alloy, perpetual
      attributes: half, newton on
      pair build: half/nsq/newton
      stencil: none
      bin: none
Per MPI rank memory allocation (min/avg/max) = 5.427 | 5.445 | 5.464 Mbytes
   Step          Temp          PotEng         Press           Pxx            Pyy            Pzz            Pxy            Pxz            Pyz             Lx             Ly             Lz           Volume    
       100   0             -107520         0.78954881     1.1378597      0.61539319     0.6153935     -4.1936254e-08  2.7214593e-07  3.917357e-09   80.999919      81             81             531440.47    
       101   0             -107520         0.78952859     1.1378396      0.61537306     0.61537307     1.5528562e-08 -4.1275643e-09  2.7458536e-08  80.999919      81             81             531440.47    
       102   0             -107520         0.78952531     1.1378364      0.61536979     0.61536979    -2.5758477e-09  2.2964925e-09  7.312077e-09   80.999919      81             81             531440.47    
       103   0             -107520         0.7895247      1.1378358      0.61536917     0.61536917    -8.8465708e-10  8.3333163e-10  1.9308736e-09  80.999919      81             81             531440.47    
       104   0             -107520         0.78952455     1.1378356      0.61536902     0.61536902    -1.1929739e-09  1.140556e-09   8.8649931e-10  80.999919      81             81             531440.47    
       105   0             -107520         0.7895245      1.1378356      0.61536897     0.61536898    -5.4761426e-10  8.7664551e-10  5.6338034e-12  80.999919      81             81             531440.47    
       106   0             -107520         0.78952448     1.1378355      0.61536895     0.61536896    -3.6619722e-10  5.4568634e-10 -1.177315e-10   80.999919      81             81             531440.47    
       107   0             -107520         0.78952447     1.1378355      0.61536894     0.61536895    -1.6807156e-10  2.2196757e-10 -1.092915e-10   80.999919      81             81             531440.47    
       108   0             -107520         0.78952447     1.1378355      0.61536894     0.61536894     1.2574306e-10  9.7102778e-11 -9.5539023e-11  80.999919      81             81             531440.47    
       109   0             -107520         0.78952447     1.1378355      0.61536894     0.61536894    -7.6431219e-11 -6.5999043e-11 -8.0501267e-11  80.999919      81             81             531440.47    
       110   0             -107520         0.78952447     1.1378355      0.61536894     0.61536894     4.0057842e-12 -8.6777709e-11 -2.690516e-11   80.999919      81             81             531440.47    
       111   0             -107520         0.78952447     1.1378355      0.61536894     0.61536894     7.9258831e-12  4.4770529e-12 -1.5530447e-11  80.999919      81             81             531440.47    
       112   0             -107520         0.78952447     1.1378355      0.61536894     0.61536894    -1.2981311e-10 -1.0453597e-11 -1.263857e-11   80.999919      81             81             531440.47    
       113   0             -107520         0.78952447     1.1378355      0.61536894     0.61536894     1.1438977e-10 -5.3917426e-11  1.7308415e-11  80.999919      81             81             531440.47    
       114   0             -107520         0.78952447     1.1378355      0.61536894     0.61536894     6.1372041e-11  4.4984742e-12  5.7794683e-11  80.999919      81             81             531440.47    
       115   0             -107520         0.78952447     1.1378355      0.61536894     0.61536894     2.4720187e-11 -6.2850111e-11  4.4534894e-11  80.999919      81             81             531440.47    
       116   0             -107520         0.78952447     1.1378355      0.61536894     0.61536894     2.5705567e-11  2.8576022e-11  2.8511758e-11  80.999919      81             81             531440.47    
       117   0             -107520         0.78952447     1.1378355      0.61536894     0.61536894    -8.3071823e-11  4.7555299e-12  2.1678361e-11  80.999919      81             81             531440.47    
       118   0             -107520         0.78952447     1.1378355      0.61536894     0.61536894     1.2794946e-10 -7.5617209e-12  4.6055807e-12  80.999919      81             81             531440.47    
       119   0             -107520         0.78952447     1.1378355      0.61536894     0.61536894     1.2715687e-10 -1.788679e-11   2.5062928e-12  80.999919      81             81             531440.47    
       120   0             -107520         0.78952447     1.1378355      0.61536894     0.61536894     9.5389074e-11 -4.7212558e-11 -1.0282227e-11  80.999919      81             81             531440.47    
       121   0             -107520         0.78952447     1.1378355      0.61536894     0.61536894    -1.4123067e-10  2.9475717e-11 -3.3224445e-11  80.999919      81             81             531440.47    
       122   0             -107520         0.78952447     1.1378355      0.61536894     0.61536894     2.3077173e-10  2.3263538e-11 -3.5944951e-11  80.999919      81             81             531440.47    
       123   0             -107520         0.78952447     1.1378355      0.61536894     0.61536894    -1.9086383e-11 -2.1806889e-11 -6.3856912e-11  80.999919      81             81             531440.47    
       124   0             -107520         0.78952447     1.1378355      0.61536894     0.61536894    -1.9765439e-10 -3.4916728e-12  7.6474061e-12  80.999919      81             81             531440.47    
       125   0             -107520         0.78952447     1.1378355      0.61536894     0.61536894     2.7847697e-11  3.2281908e-11  5.955123e-12   80.999919      81             81             531440.47    
       126   0             -107520         0.78952447     1.1378355      0.61536894     0.61536894    -4.7469613e-11  2.5127192e-11  1.197451e-11   80.999919      81             81             531440.47    
       127   0             -107520         0.78952447     1.1378355      0.61536894     0.61536894    -1.3431159e-10  4.1450226e-11 -2.8811656e-11  80.999919      81             81             531440.47    
       128   0             -107520         0.78952447     1.1378355      0.61536894     0.61536894    -1.1423982e-10  5.4624329e-11 -8.6156491e-11  80.999919      81             81             531440.47    
       129   0             -107520         0.78952447     1.1378355      0.61536894     0.61536894     2.1042149e-10  3.9115304e-11 -1.0089435e-11  80.999919      81             81             531440.47    
       130   0             -107520         0.78952447     1.1378355      0.61536894     0.61536894     8.3393143e-11  3.4531145e-11  3.0889523e-11  80.999919      81             81             531440.47    
       131   0             -107520         0.78952447     1.1378355      0.61536894     0.61536894    -5.8523007e-11 -1.1995931e-12 -1.2060195e-11  80.999919      81             81             531440.47    
       132   0             -107520         0.78952447     1.1378355      0.61536894     0.61536894     1.0742785e-10  1.0924866e-11  2.1935417e-11  80.999919      81             81             531440.47    
       133   0             -107520         0.78952447     1.1378355      0.61536894     0.61536894     7.3046652e-11  5.1668189e-11 -2.067156e-11   80.999919      81             81             531440.47    
       134   0             -107520         0.78952447     1.1378355      0.61536894     0.61536894    -8.0993957e-11 -4.1407384e-11  1.0624968e-11  80.999919      81             81             531440.47    
       135   0             -107520         0.78952447     1.1378355      0.61536894     0.61536894    -8.1143906e-11  9.5753236e-12 -5.2267986e-12  80.999919      81             81             531440.47    
       136   0             -107520         0.78952447     1.1378355      0.61536894     0.61536894    -9.1597503e-11 -1.0389333e-11 -6.694158e-11   80.999919      81             81             531440.47    
       137   0             -107520         0.78952447     1.1378355      0.61536894     0.61536894    -2.148557e-11  -1.2038774e-11  1.6558669e-11  80.999919      81             81             531440.47    
       138   0             -107520         0.78952447     1.1378355      0.61536894     0.61536894     1.2424357e-12  2.1764047e-11 -4.1728703e-11  80.999919      81             81             531440.47    
       139   0             -107520         0.78952447     1.1378355      0.61536894     0.61536894    -1.2702834e-10 -1.0282227e-11  4.1300277e-11  80.999919      81             81             531440.47    
       140   0             -107520         0.78952447     1.1378355      0.61536894     0.61536894    -1.4823544e-11  1.0710653e-13 -5.8480164e-12  80.999919      81             81             531440.47    
       141   0             -107520         0.78952447     1.1378355      0.61536894     0.61536894     1.5117015e-10 -1.0582125e-11  3.1317949e-11  80.999919      81             81             531440.47    
       142   0             -107520         0.78952447     1.1378355      0.61536894     0.61536894     1.5087026e-10  4.9418952e-11 -3.3417237e-11  80.999919      81             81             531440.47    
       143   0             -107520         0.78952447     1.1378355      0.61536894     0.61536894     1.7993897e-11  5.7409099e-12  4.98688e-11    80.999919      81             81             531440.47    
       144   0             -107520         0.78952447     1.1378355      0.61536894     0.61536894     1.3216946e-10 -2.6133993e-11 -1.6751461e-11  80.999919      81             81             531440.47    
       145   0             -107520         0.78952447     1.1378355      0.61536894     0.61536894     1.6597228e-10  7.71167e-13    6.120067e-11   80.999919      81             81             531440.47    
       146   0             -107520         0.78952447     1.1378355      0.61536894     0.61536894    -1.7843948e-11  1.4780701e-11 -1.7265572e-11  80.999919      81             81             531440.47    
       147   0             -107520         0.78952447     1.1378355      0.61536894     0.61536894     1.1282602e-10 -1.1910246e-11 -7.3068074e-11  80.999919      81             81             531440.47    
       148   0             -107520         0.78952447     1.1378355      0.61536894     0.61536894    -4.5627381e-11 -5.0340068e-12 -3.1510741e-11  80.999919      81             81             531440.47    
       149   0             -107520         0.78952447     1.1378355      0.61536894     0.61536894    -1.2666418e-10 -1.5530447e-11  3.0054092e-11  80.999919      81             81             531440.47    
       150   0             -107520         0.78952447     1.1378355      0.61536894     0.61536894    -4.4132174e-10  4.2414185e-12 -5.7601891e-11  80.999919      81             81             531440.47    
       151   0             -107520         0.78952447     1.1378355      0.61536894     0.61536894     3.6780382e-11  9.810958e-12   5.1239763e-11  80.999919      81             81             531440.47    
       152   0             -107520         0.78952447     1.1378355      0.61536894     0.61536894    -1.1269749e-10  4.7898039e-11  5.1968087e-11  80.999919      81             81             531440.47    
       153   0             -107520         0.78952447     1.1378355      0.61536894     0.61536894    -1.119049e-10   3.7294493e-11 -6.4028283e-11  80.999919      81             81             531440.47    
       154   0             -107520         0.78952447     1.1378355      0.61536894     0.61536894     7.1290105e-11  4.6398548e-11  4.5734488e-11  80.999919      81             81             531440.47    
       155   0             -107520         0.78952447     1.1378355      0.61536894     0.61536894     2.6605262e-10  1.0269374e-10  1.295989e-11   80.999919      81             81             531440.47    
       156   0             -107520         0.78952447     1.1378355      0.61536894     0.61536894    -1.4652173e-11 -5.5909608e-12 -3.1960588e-11  80.999919      81             81             531440.47    
       157   0             -107520         0.78952447     1.1378355      0.61536894     0.61536894     1.6974243e-10 -5.0125855e-12  5.676646e-12   80.999919      81             81             531440.47    
       158   0             -107520         0.78952447     1.1378355      0.61536894     0.61536894    -1.925347e-10  -7.9687257e-12 -1.9750444e-11  80.999919      81             81             531440.47    
       159   0             -107520         0.78952447     1.1378355      0.61536894     0.61536894     1.3606813e-10 -4.2842611e-12 -3.3203024e-11  80.999919      81             81             531440.47    
       160   0             -107520         0.78952447     1.1378355      0.61536894     0.61536894     2.4540248e-10  6.8119752e-12 -2.6990845e-11  80.999919      81             81             531440.47    
       161   0             -107520         0.78952447     1.1378355      0.61536894     0.61536894     2.329567e-10  -6.1050721e-12 -1.4202326e-11  80.999919      81             81             531440.47    
       162   0             -107520         0.78952447     1.1378355      0.61536894     0.61536894     3.9500888e-11 -3.8793985e-11  7.1568582e-11  80.999919      81             81             531440.47    
       163   0             -107520         0.78952447     1.1378355      0.61536894     0.61536894     2.0988595e-10  6.1264934e-12 -8.1293855e-11  80.999919      81             81             531440.47    
       164   0             -107520         0.78952447     1.1378355      0.61536894     0.61536894    -1.8979277e-11  8.1186748e-11 -5.5995293e-11  80.999919      81             81             531440.47    
       165   0             -107520         0.78952447     1.1378355      0.61536894     0.61536894     5.807316e-11  -4.0272055e-11 -1.8422323e-11  80.999919      81             81             531440.47    
       166   0             -107520         0.78952447     1.1378355      0.61536894     0.61536894     3.3674292e-11 -7.0818836e-11 -5.3231945e-11  80.999919      81             81             531440.47    
       167   0             -107520         0.78952447     1.1378355      0.61536894     0.61536894    -1.8893592e-11 -2.8854499e-11 -2.0650139e-11  80.999919      81             81             531440.47    
       168   0             -107520         0.78952447     1.1378355      0.61536894     0.61536894    -1.8413754e-10 -2.2835112e-11  1.3174103e-11  80.999919      81             81             531440.47    
       169   0             -107520         0.78952447     1.1378355      0.61536894     0.61536894     4.627002e-11  -2.6733789e-11 -3.4017033e-11  80.999919      81             81             531440.47    
       170   0             -107520         0.78952447     1.1378355      0.61536894     0.61536894    -1.5249827e-10 -3.1317949e-11 -2.4141811e-11  80.999919      81             81             531440.47    
       171   0             -107520         0.78952447     1.1378355      0.61536894     0.61536894     1.9022119e-11  2.6819475e-11 -1.7329836e-11  80.999919      81             81             531440.47    
       172   0             -107520         0.78952447     1.1378355      0.61536894     0.61536894    -1.7167034e-10  7.9258831e-13 -1.0260805e-11  80.999919      81             81             531440.47    
       173   0             -107520         0.78952447     1.1378355      0.61536894     0.61536894     2.861458e-10   7.0090512e-11  1.2831362e-11  80.999919      81             81             531440.47    
       174   0             -107520         0.78952447     1.1378355      0.61536894     0.61536894     9.5967449e-12  5.4131639e-11  5.5909608e-12  80.999919      81             81             531440.47    
       175   0             -107520         0.78952447     1.1378355      0.61536894     0.61536894     6.6513154e-11 -3.7208808e-11 -4.6527076e-11  80.999919      81             81             531440.47    
       176   0             -107520         0.78952447     1.1378355      0.61536894     0.61536894     2.0393083e-11  7.5103098e-11 -3.0139777e-11  80.999919      81             81             531440.47    
       177   0             -107520         0.78952447     1.1378355      0.61536894     0.61536894    -4.0422004e-11  1.4180904e-11 -9.0997706e-11  80.999919      81             81             531440.47    
       178   0             -107520         0.78952447     1.1378355      0.61536894     0.61536894     7.7652233e-11 -8.170086e-11   1.542334e-11   80.999919      81             81             531440.47    
       179   0             -107520         0.78952447     1.1378355      0.61536894     0.61536894     1.5984578e-10 -8.0351317e-11  2.3177853e-11  80.999919      81             81             531440.47    
       180   0             -107520         0.78952447     1.1378355      0.61536894     0.61536894    -1.2197291e-10  1.9793286e-11 -4.5841594e-12  80.999919      81             81             531440.47    
       181   0             -107520         0.78952447     1.1378355      0.61536894     0.61536894    -3.528089e-11   1.3409737e-11  8.6542075e-12  80.999919      81             81             531440.47    
       182   0             -107520         0.78952447     1.1378355      0.61536894     0.61536894    -3.3292993e-10  3.5816423e-11  2.3177853e-11  80.999919      81             81             531440.47    
       183   0             -107520         0.78952447     1.1378355      0.61536894     0.61536894     3.9200989e-11  1.9279175e-12 -2.4848715e-12  80.999919      81             81             531440.47    
       184   0             -107520         0.78952447     1.1378355      0.61536894     0.61536894    -1.4073798e-11 -4.0914694e-12  2.0800088e-11  80.999919      81             81             531440.47    
       185   0             -107520         0.78952447     1.1378355      0.61536894     0.61536894     1.2319393e-10  7.3689291e-11 -4.5991543e-11  80.999919      81             81             531440.47    
       186   0             -107520         0.78952447     1.1378355      0.61536894     0.61536894    -5.9594072e-11 -3.7487285e-11  1.6987095e-11  80.999919      81             81             531440.47    
       187   0             -107520         0.78952447     1.1378355      0.61536894     0.61536894    -9.680288e-11   4.134312e-11   4.7790933e-11  80.999919      81             81             531440.47    
       188   0             -107520         0.78952447     1.1378355      0.61536894     0.61536894    -9.8302372e-11 -2.870455e-12   4.9140475e-11  80.999919      81             81             531440.47    
       189   0             -107520         0.78952447     1.1378355      0.61536894     0.61536894     1.0946287e-10  2.1935417e-11 -5.1004129e-11  80.999919      81             81             531440.47    
       190   0             -107520         0.78952447     1.1378355      0.61536894     0.61536894    -6.3835491e-11  2.4356025e-11  1.4994914e-11  80.999919      81             81             531440.47    
       191   0             -107520         0.78952447     1.1378355      0.61536894     0.61536894     1.1053394e-10  1.7651156e-11 -1.6622933e-11  80.999919      81             81             531440.47    
       192   0             -107520         0.78952447     1.1378355      0.61536894     0.61536894     1.0639963e-10  8.5128269e-11  2.1207093e-12  80.999919      81             81             531440.47    
       193   0             -107520         0.78952447     1.1378355      0.61536894     0.61536894    -1.0894876e-10  2.6990845e-11 -3.0782416e-11  80.999919      81             81             531440.47    
       194   0             -107520         0.78952447     1.1378355      0.61536894     0.61536894     4.1985759e-11  5.7451942e-11  7.4546144e-12  80.999919      81             81             531440.47    
       195   0             -107520         0.78952447     1.1378355      0.61536894     0.61536894    -1.0260805e-11 -2.7247901e-11  5.3339051e-12  80.999919      81             81             531440.47    
       196   0             -107520         0.78952447     1.1378355      0.61536894     0.61536894     2.5791252e-11  1.2274408e-11  2.035024e-12   80.999919      81             81             531440.47    
       197   0             -107520         0.78952447     1.1378355      0.61536894     0.61536894     5.3103417e-11 -1.0967708e-11 -2.9989828e-11  80.999919      81             81             531440.47    
       198   0             -107520         0.78952447     1.1378355      0.61536894     0.61536894     8.137954e-11   1.1181922e-11  5.6637932e-11  80.999919      81             81             531440.47    
       199   0             -107520         0.78952447     1.1378355      0.61536894     0.61536894     8.137954e-11   1.1181922e-11  5.6637932e-11  80.999919      81             81             531440.47    
Loop time of 1.81187 on 6 procs for 99 steps with 32000 atoms

99.8% CPU use with 6 MPI tasks x 1 OpenMP threads

Minimization stats:
  Stopping criterion = linesearch alpha is zero
  Energy initial, next-to-last, final = 
     -107519.999604017  -107519.999611056  -107519.999611056
  Force two-norm initial, final = 0.0090591082 3.7250666e-09
  Force max component initial, final = 9.8590784e-05 5.914947e-11
  Final line search alpha, max atom move = 0.5 2.9574735e-11
  Iterations, force evaluations = 99 199

MPI task timing breakdown:
Section |  min time  |  avg time  |  max time  |%varavg| %total
---------------------------------------------------------------
Pair    | 1.6101     | 1.6647     | 1.7281     |   3.0 | 91.88
Neigh   | 0          | 0          | 0          |   0.0 |  0.00
Comm    | 0.035882   | 0.099189   | 0.15363    |  12.3 |  5.47
Output  | 0.010895   | 0.011222   | 0.012087   |   0.4 |  0.62
Modify  | 0          | 0          | 0          |   0.0 |  0.00
Other   |            | 0.0368     |            |       |  2.03

Nlocal:        5333.33 ave        5417 max        5195 min
Histogram: 2 0 0 0 0 0 0 0 2 2
Nghost:        7568.33 ave        8130 max        7273 min
Histogram: 4 0 0 0 0 0 0 0 0 2
Neighs:         229333 ave      234091 max      224219 min
Histogram: 2 0 0 0 0 0 2 1 0 1

Total # of neighbors = 1376000
Ave neighs/atom = 43
Neighbor list builds = 0
Dangerous builds = 0

# Obtain new stress tensor

variable tmp equal pxx
variable pxx1 equal ${tmp}
variable pxx1 equal 1.13783552164264
variable tmp equal pyy
variable pyy1 equal ${tmp}
variable pyy1 equal 0.615368936039377
variable tmp equal pzz
variable pzz1 equal ${tmp}
variable pzz1 equal 0.615368938607106
variable tmp equal pxy
variable pxy1 equal ${tmp}
variable pxy1 equal 8.13795401376859e-11
variable tmp equal pxz
variable pxz1 equal ${tmp}
variable pxz1 equal 1.11819215456362e-11
variable tmp equal pyz
variable pyz1 equal ${tmp}
variable pyz1 equal 5.66379321200425e-11

# Compute elastic constant from pressure tensor

variable C1neg equal ${d1}
variable C1neg equal 113.783551948817
variable C2neg equal ${d2}
variable C2neg equal 61.5368934886784
variable C3neg equal ${d3}
variable C3neg equal 61.5368935712662
variable C4neg equal ${d4}
variable C4neg equal -3.52374713487577e-08
variable C5neg equal ${d5}
variable C5neg equal -8.3506591163166e-08
variable C6neg equal ${d6}
variable C6neg equal 2.53146840085053e-09

# Reset box and simulation parameters

clear
OMP_NUM_THREADS environment is not set. Defaulting to 1 thread. (src/comm.cpp:98)
  using 1 OpenMP thread(s) per MPI task
box tilt large
read_restart restart.equil
Reading restart file ...
  restart file = 24 Mar 2022, LAMMPS = 24 Mar 2022
  restoring atom style atomic from restart
  triclinic box = (0.13999997 0.13999997 0.13999997) to (81.14 81.14 81.14) with tilt (0 0 0)
  2 by 3 by 1 MPI processor grid
  pair style eam/alloy stores no restart info
  32000 atoms
  read_restart CPU = 0.003 seconds
include potential.mod
# NOTE: This script can be modified for different pair styles
# See in.elastic for more info.

# Choose potential
pair_style eam/alloy
pair_coeff * * Mishin-Ni-Al-2009.eam.alloy Al


# Setup neighbor style
neighbor 1.0 nsq
neigh_modify once no every 1 delay 0 check yes

# Setup minimization style
min_style	     cg
min_modify	     dmax ${dmax} line quadratic
min_modify	     dmax 0.01 line quadratic

# Setup output
thermo		1
thermo_style custom step temp pe press pxx pyy pzz pxy pxz pyz lx ly lz vol
thermo_modify norm no

# Positive deformation

variable delta equal ${up}*${len0}
variable delta equal 1e-06*${len0}
variable delta equal 1e-06*81.0000000634528
variable deltaxy equal ${up}*xy
variable deltaxy equal 1e-06*xy
variable deltaxz equal ${up}*xz
variable deltaxz equal 1e-06*xz
variable deltayz equal ${up}*yz
variable deltayz equal 1e-06*yz
if "${dir} == 1" then    "change_box all x delta 0 ${delta} xy delta ${deltaxy} xz delta ${deltaxz} remap units box"
change_box all x delta 0 ${delta} xy delta ${deltaxy} xz delta ${deltaxz} remap units box
change_box all x delta 0 8.10000000634528e-05 xy delta ${deltaxy} xz delta ${deltaxz} remap units box
change_box all x delta 0 8.10000000634528e-05 xy delta 0 xz delta ${deltaxz} remap units box
change_box all x delta 0 8.10000000634528e-05 xy delta 0 xz delta 0 remap units box
Changing box ...
  triclinic box = (0.13999997 0.13999997 0.13999997) to (81.140081 81.14 81.14) with tilt (0 0 0)
  triclinic box = (0.13999997 0.13999997 0.13999997) to (81.140081 81.14 81.14) with tilt (0 0 0)
  triclinic box = (0.13999997 0.13999997 0.13999997) to (81.140081 81.14 81.14) with tilt (0 0 0)
if "${dir} == 2" then    "change_box all y delta 0 ${delta} yz delta ${deltayz} remap units box"
if "${dir} == 3" then    "change_box all z delta 0 ${delta} remap units box"
if "${dir} == 4" then    "change_box all yz delta ${delta} remap units box"
if "${dir} == 5" then    "change_box all xz delta ${delta} remap units box"
if "${dir} == 6" then    "change_box all xy delta ${delta} remap units box"

# Relax atoms positions

minimize ${etol} ${ftol} ${maxiter} ${maxeval}
minimize 0 ${ftol} ${maxiter} ${maxeval}
minimize 0 1e-10 ${maxiter} ${maxeval}
minimize 0 1e-10 100 ${maxeval}
minimize 0 1e-10 100 1000
Neighbor list info ...
  update every 1 steps, delay 0 steps, check yes
  max neighbors/atom: 2000, page size: 100000
  master list distance cutoff = 7.28721
  ghost atom cutoff = 7.28721
  1 neighbor lists, perpetual/occasional/extra = 1 0 0
  (1) pair eam/alloy, perpetual
      attributes: half, newton on
      pair build: half/nsq/newton
      stencil: none
      bin: none
Per MPI rank memory allocation (min/avg/max) = 5.427 | 5.445 | 5.464 Mbytes
   Step          Temp          PotEng         Press           Pxx            Pyy            Pzz            Pxy            Pxz            Pyz             Lx             Ly             Lz           Volume    
       100   0             -107520        -0.78949778    -1.1378067     -0.61534347    -0.61534315    -4.1550181e-08  2.7222166e-07  4.0174079e-09  81.000081      81             81             531441.53    
       101   0             -107520        -0.789518      -1.1378268     -0.61536359    -0.61536359     1.5642384e-08 -4.1173167e-09  2.7464822e-08  81.000081      81             81             531441.53    
       102   0             -107520        -0.78952127    -1.1378301     -0.61536687    -0.61536687    -2.3432291e-09  2.283271e-09   7.3300562e-09  81.000081      81             81             531441.53    
       103   0             -107520        -0.78952189    -1.1378307     -0.61536749    -0.61536748    -9.947606e-10   8.248043e-10   1.8741034e-09  81.000081      81             81             531441.53    
       104   0             -107520        -0.78952204    -1.1378308     -0.61536764    -0.61536764    -1.1346629e-09  1.1359696e-09  8.3973492e-10  81.000081      81             81             531441.53    
       105   0             -107520        -0.78952208    -1.1378309     -0.61536768    -0.61536768    -6.0343697e-10  8.7529422e-10  1.8957818e-11  81.000081      81             81             531441.53    
       106   0             -107520        -0.7895221     -1.1378309     -0.6153677     -0.6153677     -2.6238905e-10  6.1277664e-10 -1.5697501e-10  81.000081      81             81             531441.53    
       107   0             -107520        -0.78952211    -1.1378309     -0.61536771    -0.61536771    -1.8846427e-10  2.0542991e-10 -1.2927732e-10  81.000081      81             81             531441.53    
       108   0             -107520        -0.78952211    -1.1378309     -0.61536771    -0.61536771    -3.5379358e-10  7.8401822e-11 -1.3311173e-10  81.000081      81             81             531441.53    
       109   0             -107520        -0.78952212    -1.1378309     -0.61536772    -0.61536771    -1.6708585e-12 -3.4659603e-11 -4.1321616e-11  81.000081      81             81             531441.53    
       110   0             -107520        -0.78952212    -1.1378309     -0.61536772    -0.61536771    -1.2557144e-10 -4.9954385e-11 -4.2049939e-11  81.000081      81             81             531441.53    
       111   0             -107520        -0.78952212    -1.1378309     -0.61536772    -0.61536772     1.0220084e-10 -5.6680661e-11  1.5701786e-11  81.000081      81             81             531441.53    
       112   0             -107520        -0.78952212    -1.1378309     -0.61536772    -0.61536772    -9.0847576e-11 -5.7130508e-11 -2.7076476e-11  81.000081      81             81             531441.53    
       113   0             -107520        -0.78952212    -1.1378309     -0.61536772    -0.61536772     1.0826306e-10 -8.2000594e-11  5.0082912e-11  81.000081      81             81             531441.53    
       114   0             -107520        -0.78952212    -1.1378309     -0.61536772    -0.61536772     4.5198865e-12 -2.0564412e-12 -5.2053669e-12  81.000081      81             81             531441.53    
       115   0             -107520        -0.78952212    -1.1378309     -0.61536772    -0.61536772    -1.0307912e-10 -1.4266561e-11  3.2153315e-11  81.000081      81             81             531441.53    
       116   0             -107520        -0.78952212    -1.1378309     -0.61536772    -0.61536772    -4.8154999e-11  6.0493646e-11  1.0331475e-10  81.000081      81             81             531441.53    
       117   0             -107520        -0.78952212    -1.1378309     -0.61536772    -0.61536772    -4.0807506e-11 -4.9054692e-12 -1.7351223e-11  81.000081      81             81             531441.53    
       118   0             -107520        -0.78952212    -1.1378309     -0.61536772    -0.61536772    -1.3471832e-10  5.7944516e-11 -1.2638545e-12  81.000081      81             81             531441.53    
       119   0             -107520        -0.78952212    -1.1378309     -0.61536772    -0.61536772     1.3658197e-10  6.0279434e-11 -3.4959501e-11  81.000081      81             81             531441.53    
       120   0             -107520        -0.78952212    -1.1378309     -0.61536772    -0.61536772    -1.9707562e-11  1.7394065e-11  2.238522e-11   81.000081      81             81             531441.53    
       121   0             -107520        -0.78952212    -1.1378309     -0.61536772    -0.61536772     7.7951975e-11 -5.6552134e-12 -5.3338944e-12  81.000081      81             81             531441.53    
       122   0             -107520        -0.78952212    -1.1378309     -0.61536772    -0.61536772     1.8668631e-10  8.0972373e-12 -6.2378717e-11  81.000081      81             81             531441.53    
       123   0             -107520        -0.78952212    -1.1378309     -0.61536772    -0.61536772     3.9543651e-11 -2.5705515e-13  6.7905403e-12  81.000081      81             81             531441.53    
       124   0             -107520        -0.78952212    -1.1378309     -0.61536772    -0.61536772     6.6363072e-11 -3.3974123e-11 -6.7476978e-12  81.000081      81             81             531441.53    
       125   0             -107520        -0.78952212    -1.1378309     -0.61536772    -0.61536772     2.7462059e-11 -2.4891507e-11  2.6326732e-11  81.000081      81             81             531441.53    
       126   0             -107520        -0.78952212    -1.1378309     -0.61536772    -0.61536772    -1.9808242e-10 -9.4896194e-12  2.9882662e-11  81.000081      81             81             531441.53    
       127   0             -107520        -0.78952212    -1.1378309     -0.61536772    -0.61536772     1.9767541e-10  3.2817375e-11 -5.0425653e-11  81.000081      81             81             531441.53    
       128   0             -107520        -0.78952212    -1.1378309     -0.61536772    -0.61536772     3.585491e-10  -4.2028518e-11 -8.514952e-11   81.000081      81             81             531441.53    
       129   0             -107520        -0.78952212    -1.1378309     -0.61536772    -0.61536772     1.5089138e-10 -5.2653464e-11 -8.6327689e-12  81.000081      81             81             531441.53    
       130   0             -107520        -0.78952212    -1.1378309     -0.61536772    -0.61536772    -1.6010252e-10  3.765858e-11  -2.0992838e-12  81.000081      81             81             531441.53    
       131   0             -107520        -0.78952212    -1.1378309     -0.61536772    -0.61536772     2.1215619e-10  1.5423309e-11 -8.6327689e-12  81.000081      81             81             531441.53    
       132   0             -107520        -0.78952212    -1.1378309     -0.61536772    -0.61536772     6.4220946e-11 -6.7883982e-11  3.8986698e-11  81.000081      81             81             531441.53    
       133   0             -107520        -0.78952212    -1.1378309     -0.61536772    -0.61536772     3.7251576e-11  2.9561343e-11  7.887309e-11   81.000081      81             81             531441.53    
       134   0             -107520        -0.78952212    -1.1378309     -0.61536772    -0.61536772    -1.8902122e-10  6.9404891e-12  7.7887712e-11  81.000081      81             81             531441.53    
       135   0             -107520        -0.78952212    -1.1378309     -0.61536772    -0.61536772     2.073364e-10   2.6519523e-11  5.818015e-11   81.000081      81             81             531441.53    
       136   0             -107520        -0.78952212    -1.1378309     -0.61536772    -0.61536772     8.6884642e-11  4.749094e-11   6.3963891e-11  81.000081      81             81             531441.53    
       137   0             -107520        -0.78952212    -1.1378309     -0.61536772    -0.61536772    -5.0768393e-12 -1.5294782e-11 -4.7983629e-12  81.000081      81             81             531441.53    
       138   0             -107520        -0.78952212    -1.1378309     -0.61536772    -0.61536772    -2.0690798e-10  9.5324619e-12 -9.9394659e-12  81.000081      81             81             531441.53    
       139   0             -107520        -0.78952212    -1.1378309     -0.61536772    -0.61536772     6.6191702e-11  4.9418853e-11  6.3406938e-12  81.000081      81             81             531441.53    
       140   0             -107520        -0.78952212    -1.1378309     -0.61536772    -0.61536772     1.4677849e-10  1.865792e-11  -2.6540945e-11  81.000081      81             81             531441.53    
       141   0             -107520        -0.78952212    -1.1378309     -0.61536772    -0.61536772     5.0447074e-11  4.258547e-11   2.2021058e-11  81.000081      81             81             531441.53    
       142   0             -107520        -0.78952212    -1.1378309     -0.61536772    -0.61536772    -2.5898307e-11 -2.5726937e-11 -8.0393999e-11  81.000081      81             81             531441.53    
       143   0             -107520        -0.78952212    -1.1378309     -0.61536772    -0.61536772    -5.4367165e-11  4.6698353e-12  4.4984652e-12  81.000081      81             81             531441.53    
       144   0             -107520        -0.78952212    -1.1378309     -0.61536772    -0.61536772    -8.1829224e-11  6.683434e-12   5.6573555e-11  81.000081      81             81             531441.53    
       145   0             -107520        -0.78952212    -1.1378309     -0.61536772    -0.61536772     2.0069581e-10  7.4781628e-11  1.7329802e-11  81.000081      81             81             531441.53    
       146   0             -107520        -0.78952212    -1.1378309     -0.61536772    -0.61536772     7.7802026e-11  9.8537809e-13 -4.1600092e-11  81.000081      81             81             531441.53    
       147   0             -107520        -0.78952212    -1.1378309     -0.61536772    -0.61536772    -2.2363798e-10 -4.1514407e-11 -5.0125755e-11  81.000081      81             81             531441.53    
       148   0             -107520        -0.78952212    -1.1378309     -0.61536772    -0.61536772    -1.5851734e-11 -4.9954385e-11 -3.0311087e-11  81.000081      81             81             531441.53    
       149   0             -107520        -0.78952212    -1.1378309     -0.61536772    -0.61536772    -5.3638842e-11  3.1017989e-11  4.2971053e-11  81.000081      81             81             531441.53    
       150   0             -107520        -0.78952212    -1.1378309     -0.61536772    -0.61536772    -8.6284847e-11 -2.5705515e-13 -5.7516091e-11  81.000081      81             81             531441.53    
       151   0             -107520        -0.78952212    -1.1378309     -0.61536772    -0.61536772     7.0690167e-12  3.9629336e-12 -1.4909199e-11  81.000081      81             81             531441.53    
       152   0             -107520        -0.78952212    -1.1378309     -0.61536772    -0.61536772    -8.1829224e-11 -1.6151632e-11  7.6388223e-11  81.000081      81             81             531441.53    
       153   0             -107520        -0.78952212    -1.1378309     -0.61536772    -0.61536772     1.8807869e-11 -3.9393702e-11  2.6155362e-11  81.000081      81             81             531441.53    
       154   0             -107520        -0.78952212    -1.1378309     -0.61536772    -0.61536772     2.9567769e-10 -2.9261445e-11 -7.7973397e-11  81.000081      81             81             531441.53    
       155   0             -107520        -0.78952212    -1.1378309     -0.61536772    -0.61536772     1.2231541e-11 -1.9386243e-11 -9.3610918e-12  81.000081      81             81             531441.53    
       156   0             -107520        -0.78952212    -1.1378309     -0.61536772    -0.61536772    -1.2713519e-10  2.7804799e-11  1.3259762e-11  81.000081      81             81             531441.53    
       157   0             -107520        -0.78952212    -1.1378309     -0.61536772    -0.61536772     1.3619639e-10  4.0486187e-11  4.5755817e-11  81.000081      81             81             531441.53    
       158   0             -107520        -0.78952212    -1.1378309     -0.61536772    -0.61536772    -1.3733172e-10 -2.3734759e-11  4.9761593e-11  81.000081      81             81             531441.53    
       159   0             -107520        -0.78952212    -1.1378309     -0.61536772    -0.61536772    -7.328214e-11   6.8119616e-12 -9.3203914e-11  81.000081      81             81             531441.53    
       160   0             -107520        -0.78952212    -1.1378309     -0.61536772    -0.61536772    -2.3664069e-10  3.9243753e-11  2.0264515e-11  81.000081      81             81             531441.53    
       161   0             -107520        -0.78952212    -1.1378309     -0.61536772    -0.61536772    -1.3823141e-10  4.7298148e-11  4.2756841e-11  81.000081      81             81             531441.53    
       162   0             -107520        -0.78952212    -1.1378309     -0.61536772    -0.61536772    -6.6041753e-11  2.1399842e-11  2.0778625e-12  81.000081      81             81             531441.53    
       163   0             -107520        -0.78952212    -1.1378309     -0.61536772    -0.61536772    -8.6970327e-11  3.8772486e-12 -1.713701e-11   81.000081      81             81             531441.53    
       164   0             -107520        -0.78952212    -1.1378309     -0.61536772    -0.61536772    -1.6886381e-10  3.1789154e-11  3.7937056e-11  81.000081      81             81             531441.53    
       165   0             -107520        -0.78952212    -1.1378309     -0.61536772    -0.61536772    -2.8725913e-10  1.713701e-13   5.9058422e-11  81.000081      81             81             531441.53    
       166   0             -107520        -0.78952212    -1.1378309     -0.61536772    -0.61536772     1.1931643e-11  4.1021718e-11  6.5891804e-11  81.000081      81             81             531441.53    
       167   0             -107520        -0.78952212    -1.1378309     -0.61536772    -0.61536772    -5.8222992e-11  3.7701423e-12  3.3181536e-11  81.000081      81             81             531441.53    
       168   0             -107520        -0.78952212    -1.1378309     -0.61536772    -0.61536772     2.3327755e-11 -6.0065221e-11  2.154979e-11   81.000081      81             81             531441.53    
       169   0             -107520        -0.78952212    -1.1378309     -0.61536772    -0.61536772     3.0203981e-11 -1.1995907e-12 -4.1471565e-11  81.000081      81             81             531441.53    
       170   0             -107520        -0.78952212    -1.1378309     -0.61536772    -0.61536772     5.7066244e-11 -1.7351223e-12  3.1981945e-11  81.000081      81             81             531441.53    
       171   0             -107520        -0.78952212    -1.1378309     -0.61536772    -0.61536772     1.4459352e-10  4.8669109e-11  1.9664719e-11  81.000081      81             81             531441.53    
       172   0             -107520        -0.78952212    -1.1378309     -0.61536772    -0.61536772     1.8150236e-10 -7.5402845e-12  4.4470542e-11  81.000081      81             81             531441.53    
       173   0             -107520        -0.78952212    -1.1378309     -0.61536772    -0.61536772    -1.6387266e-11  1.7993861e-12 -7.6602436e-11  81.000081      81             81             531441.53    
       174   0             -107520        -0.78952212    -1.1378309     -0.61536772    -0.61536772     1.8289474e-10 -3.6201934e-11  2.8190382e-11  81.000081      81             81             531441.53    
       175   0             -107520        -0.78952212    -1.1378309     -0.61536772    -0.61536772    -5.7194772e-11  4.0893191e-11 -1.3816715e-11  81.000081      81             81             531441.53    
       176   0             -107520        -0.78952212    -1.1378309     -0.61536772    -0.61536772     1.0974113e-10  2.2192428e-11 -2.662663e-11   81.000081      81             81             531441.53    
       177   0             -107520        -0.78952212    -1.1378309     -0.61536772    -0.61536772     1.6933508e-10 -3.7165891e-11  3.5023765e-11  81.000081      81             81             531441.53    
       178   0             -107520        -0.78952212    -1.1378309     -0.61536772    -0.61536772     4.0122025e-11 -2.2813645e-11  5.2482094e-11  81.000081      81             81             531441.53    
       179   0             -107520        -0.78952212    -1.1378309     -0.61536772    -0.61536772    -1.086058e-11   4.7769416e-11  3.003261e-11   81.000081      81             81             531441.53    
       180   0             -107520        -0.78952212    -1.1378309     -0.61536772    -0.61536772    -7.6152589e-11 -3.1403571e-11  1.3431132e-11  81.000081      81             81             531441.53    
       181   0             -107520        -0.78952212    -1.1378309     -0.61536772    -0.61536772     1.3407568e-10  2.4313133e-11  2.5212826e-11  81.000081      81             81             531441.53    
       182   0             -107520        -0.78952212    -1.1378309     -0.61536772    -0.61536772    -1.1119778e-10 -1.0367891e-11 -4.2499785e-11  81.000081      81             81             531441.53    
       183   0             -107520        -0.78952212    -1.1378309     -0.61536772    -0.61536772     1.8525108e-10  5.9786744e-11  6.0793544e-11  81.000081      81             81             531441.53    
       184   0             -107520        -0.78952212    -1.1378309     -0.61536772    -0.61536772    -5.0618444e-11 -4.9997227e-11  6.1179127e-11  81.000081      81             81             531441.53    
       185   0             -107520        -0.78952212    -1.1378309     -0.61536772    -0.61536772    -6.1607552e-11  5.8822788e-11  5.3874476e-11  81.000081      81             81             531441.53    
       186   0             -107520        -0.78952212    -1.1378309     -0.61536772    -0.61536772     1.4153028e-10 -3.9415124e-12  1.8914975e-11  81.000081      81             81             531441.53    
       187   0             -107520        -0.78952212    -1.1378309     -0.61536772    -0.61536772    -2.0328778e-11  2.4848665e-12 -4.2692577e-11  81.000081      81             81             531441.53    
       188   0             -107520        -0.78952212    -1.1378309     -0.61536772    -0.61536772    -6.9876159e-11  5.5823811e-11 -2.6369575e-11  81.000081      81             81             531441.53    
       189   0             -107520        -0.78952212    -1.1378309     -0.61536772    -0.61536772    -9.6802687e-11  5.1453873e-11 -4.8626267e-12  81.000081      81             81             531441.53    
       190   0             -107520        -0.78952212    -1.1378309     -0.61536772    -0.61536772    -9.6802687e-11  5.1453873e-11 -4.8626267e-12  81.000081      81             81             531441.53    
Loop time of 1.62611 on 6 procs for 90 steps with 32000 atoms

99.7% CPU use with 6 MPI tasks x 1 OpenMP threads

Minimization stats:
  Stopping criterion = linesearch alpha is zero
  Energy initial, next-to-last, final = 
     -107519.999604018  -107519.999611009  -107519.999611009
  Force two-norm initial, final = 0.0090590815 1.1833693e-08
  Force max component initial, final = 9.8590337e-05 1.6580404e-10
  Final line search alpha, max atom move = 0.5 8.2902019e-11
  Iterations, force evaluations = 90 181

[...]
       162   0             -107520         1.9112148e-07 -3.8930871e-08  3.3127742e-07  2.8101788e-07 -0.31598424     6.021523e-11  -3.9972116e-11  81             81             81             531441       
       163   0             -107520         1.9109573e-07 -3.886198e-08   3.3113964e-07  2.8100955e-07 -0.31598424     1.5658959e-11 -2.9732742e-11  81             81             81             531441       
       164   0             -107520         1.9106415e-07 -3.8942524e-08  3.3110708e-07  2.8102789e-07 -0.31598424    -6.8333897e-12  5.8480106e-12  81             81             81             531441       
       165   0             -107520         1.9111216e-07 -3.8817595e-08  3.3110365e-07  2.8105043e-07 -0.31598424     3.9993538e-11  3.6416183e-11  81             81             81             531441       
       166   0             -107520         1.9113779e-07 -3.8858038e-08  3.3128787e-07  2.8098354e-07 -0.31598424    -7.4546069e-12  3.0760964e-11  81             81             81             531441       
       167   0             -107520         1.9101145e-07 -3.8886828e-08  3.3089492e-07  2.8102626e-07 -0.31598424     7.2618154e-12  5.3767423e-12  81             81             81             531441       
       168   0             -107520         1.9112766e-07 -3.8868492e-08  3.3125257e-07  2.8099889e-07 -0.31598424    -7.9258752e-13  5.6166607e-11  81             81             81             531441       
       169   0             -107520         1.911165e-07  -3.8835931e-08  3.3113844e-07  2.81047e-07   -0.31598424    -9.858075e-11  -2.0607275e-11  81             81             81             531441       
       170   0             -107520         1.911785e-07  -3.8819651e-08  3.312428e-07   2.8111234e-07 -0.31598424    -1.3923835e-12  6.6748722e-11  81             81             81             531441       
       171   0             -107520         1.9111434e-07 -3.8924016e-08  3.3124794e-07  2.8101908e-07 -0.31598424     3.8986737e-12  4.519891e-12   81             81             81             531441       
       172   0             -107520         1.9114505e-07 -3.8838331e-08  3.3122824e-07  2.8104525e-07 -0.31598424    -5.2567831e-11 -2.2920774e-11  81             81             81             531441       
       173   0             -107520         1.9111966e-07 -3.8869177e-08  3.3113073e-07  2.8109743e-07 -0.31598424     6.2999997e-11 -8.8684117e-12  81             81             81             531441       
       174   0             -107520         1.9109142e-07 -3.8870548e-08  3.3113004e-07  2.8101476e-07 -0.31598424     1.1995919e-11 -3.0996598e-11  81             81             81             531441       
       175   0             -107520         1.9112813e-07 -3.8859066e-08  3.3124691e-07  2.8099653e-07 -0.31598424    -4.6098604e-11  4.620571e-11   81             81             81             531441       
       176   0             -107520         1.9104385e-07 -3.8859752e-08  3.3097615e-07  2.8101515e-07 -0.31598424     3.2281875e-11 -2.2663719e-11  81             81             81             531441       
       177   0             -107520         1.9113613e-07 -3.8813653e-08  3.3115437e-07  2.8106767e-07 -0.31598424     4.4984697e-13 -6.6834407e-12  81             81             81             531441       
       178   0             -107520         1.910053e-07  -3.8885115e-08  3.3088944e-07  2.8101157e-07 -0.31598424    -3.6501868e-11  2.9732742e-11  81             81             81             531441       
       179   0             -107520         1.9119478e-07 -3.8759329e-08  3.3132146e-07  2.8102222e-07 -0.31598424     1.6087384e-11  1.7479768e-11  81             81             81             531441       
       180   0             -107520         1.9100766e-07 -3.8905508e-08  3.3091103e-07  2.8101746e-07 -0.31598424    -4.2564092e-11  1.9771845e-11  81             81             81             531441       
       181   0             -107520         1.9112154e-07 -3.8797887e-08  3.3109217e-07  2.8107033e-07 -0.31598424    -1.90221e-11   -6.404964e-12   81             81             81             531441       
       182   0             -107520         1.911438e-07  -3.8893683e-08  3.312973e-07   2.8102779e-07 -0.31598424     1.9279156e-13  7.1975515e-12  81             81             81             531441       
       183   0             -107520         1.9113018e-07 -3.8800801e-08  3.3118694e-07  2.810044e-07  -0.31598424    -2.5705541e-13  1.4652158e-11  81             81             81             531441       
       184   0             -107520         1.9104859e-07 -3.8877746e-08  3.3099894e-07  2.8102456e-07 -0.31598424     6.4520908e-11 -3.2667458e-11  81             81             81             531441       
       185   0             -107520         1.9110788e-07 -3.8858895e-08  3.3113587e-07  2.8104666e-07 -0.31598424    -7.4331856e-11  9.725263e-12   81             81             81             531441       
       186   0             -107520         1.9113161e-07 -3.8850327e-08  3.312392e-07   2.8100596e-07 -0.31598424     4.8904792e-11  2.7761984e-11  81             81             81             531441       
       187   0             -107520         1.9104692e-07 -3.8977312e-08  3.3109285e-07  2.8102521e-07 -0.31598424     6.589187e-11  -3.986501e-11   81             81             81             531441       
       188   0             -107520         1.9104523e-07 -3.8821365e-08  3.3092731e-07  2.8102976e-07 -0.31598424     6.3514108e-11  6.8569531e-11  81             81             81             531441       
       189   0             -107520         1.9114236e-07 -3.8854611e-08  3.3121967e-07  2.8106203e-07 -0.31598424    -9.6824205e-12  1.2659979e-11  81             81             81             531441       
       190   0             -107520         1.9104188e-07 -3.886455e-08   3.3094839e-07  2.810418e-07  -0.31598424    -2.2428085e-11 -2.7676299e-11  81             81             81             531441       
       191   0             -107520         1.9116031e-07 -3.8869863e-08  3.3130141e-07  2.8104937e-07 -0.31598424     1.3216932e-11 -1.9257735e-11  81             81             81             531441       
       192   0             -107520         1.9113127e-07 -3.8820679e-08  3.312548e-07   2.809597e-07  -0.31598424    -8.9969394e-13 -5.6830667e-11  81             81             81             531441       
       193   0             -107520         1.9114404e-07 -3.8868149e-08  3.3126217e-07  2.8103811e-07 -0.31598424    -1.6708602e-12 -8.0886769e-11  81             81             81             531441       
       194   0             -107520         1.9108176e-07 -3.8841415e-08  3.3103647e-07  2.8105024e-07 -0.31598424    -1.7865351e-11 -1.6987078e-11  81             81             81             531441       
       195   0             -107520         1.9115764e-07 -3.8910478e-08  3.3133431e-07  2.8104909e-07 -0.31598424     4.3056781e-12 -7.1825566e-11  81             81             81             531441       
       196   0             -107520         1.9104507e-07 -3.8908935e-08  3.3099294e-07  2.810512e-07  -0.31598424     3.5302276e-11 -1.6944236e-11  81             81             81             531441       
       197   0             -107520         1.9106986e-07 -3.8923844e-08  3.3109217e-07  2.8104125e-07 -0.31598424    -3.920095e-12  -7.4331856e-12  81             81             81             531441       
       198   0             -107520         1.9111982e-07 -3.8831819e-08  3.3113021e-07  2.8106108e-07 -0.31598424     2.2620876e-11 -2.9989798e-11  81             81             81             531441       
       199   0             -107520         1.9107926e-07 -3.8867806e-08  3.3107383e-07  2.8103176e-07 -0.31598424     2.6776605e-11  3.3074463e-11  81             81             81             531441       
       200   0             -107520         1.9107665e-07 -3.8847071e-08  3.3108497e-07  2.8099205e-07 -0.31598424    -1.550901e-11  -3.4916693e-12  81             81             81             531441       
Loop time of 1.78045 on 6 procs for 100 steps with 32000 atoms

99.9% CPU use with 6 MPI tasks x 1 OpenMP threads

Minimization stats:
  Stopping criterion = max iterations
  Energy initial, next-to-last, final = 
     -107519.999604151  -107519.999611091  -107519.999611084
  Force two-norm initial, final = 0.0090590948 3.1194882e-09
  Force max component initial, final = 9.8590541e-05 4.9201173e-11
  Final line search alpha, max atom move = 1 4.9201173e-11
  Iterations, force evaluations = 100 200

MPI task timing breakdown:
Section |  min time  |  avg time  |  max time  |%varavg| %total
---------------------------------------------------------------
Pair    | 1.6126     | 1.6569     | 1.6827     |   1.9 | 93.06
Neigh   | 0          | 0          | 0          |   0.0 |  0.00
Comm    | 0.050254   | 0.076032   | 0.12026    |   8.8 |  4.27
Output  | 0.011157   | 0.011455   | 0.012307   |   0.4 |  0.64
Modify  | 0          | 0          | 0          |   0.0 |  0.00
Other   |            | 0.03609    |            |       |  2.03

Nlocal:        5333.33 ave        5417 max        5195 min
Histogram: 2 0 0 0 0 0 0 0 2 2
Nghost:        7568.33 ave        8130 max        7273 min
Histogram: 4 0 0 0 0 0 0 0 0 2
Neighs:         229333 ave      234091 max      224219 min
Histogram: 2 0 0 0 0 0 2 1 0 1

Total # of neighbors = 1376000
Ave neighs/atom = 43
Neighbor list builds = 0
Dangerous builds = 0

# Obtain new stress tensor

variable tmp equal pe
variable e1 equal ${tmp}
variable e1 equal -107519.999611084
variable tmp equal press
variable p1 equal ${tmp}
variable p1 equal 1.91076648525002e-07
variable tmp equal pxx
variable pxx1 equal ${tmp}
variable pxx1 equal -3.88470705103243e-08
variable tmp equal pyy
variable pyy1 equal ${tmp}
variable pyy1 equal 3.31084969746386e-07
variable tmp equal pzz
variable pzz1 equal ${tmp}
variable pzz1 equal 2.80992046338945e-07
variable tmp equal pxy
variable pxy1 equal ${tmp}
variable pxy1 equal -0.315984236897617
variable tmp equal pxz
variable pxz1 equal ${tmp}
variable pxz1 equal -1.55090097764932e-11
variable tmp equal pyz
variable pyz1 equal ${tmp}
variable pyz1 equal -3.49166932813313e-12

# Compute elastic constant from pressure tensor

variable C1pos equal ${d1}
variable C1pos equal 4.10015375922035e-06
variable C2pos equal ${d2}
variable C2pos equal -3.29932376127555e-05
variable C3pos equal ${d3}
variable C3pos equal -2.78097602414912e-05
variable C4pos equal ${d4}
variable C4pos equal 4.12504314935752e-08
variable C5pos equal ${d5}
variable C5pos equal 8.61756842953789e-08
variable C6pos equal ${d6}
variable C6pos equal 31.5984236953682

# Combine positive and negative

variable C1${dir} equal 0.5*(${C1neg}+${C1pos})
variable C16 equal 0.5*(${C1neg}+${C1pos})
variable C16 equal 0.5*(-4.10407813848978e-06+${C1pos})
variable C16 equal 0.5*(-4.10407813848978e-06+4.10015375922035e-06)
variable C2${dir} equal 0.5*(${C2neg}+${C2pos})
variable C26 equal 0.5*(${C2neg}+${C2pos})
variable C26 equal 0.5*(3.2974729623188e-05+${C2pos})
variable C26 equal 0.5*(3.2974729623188e-05+-3.29932376127555e-05)
variable C3${dir} equal 0.5*(${C3neg}+${C3pos})
variable C36 equal 0.5*(${C3neg}+${C3pos})
variable C36 equal 0.5*(2.78132015708014e-05+${C3pos})
variable C36 equal 0.5*(2.78132015708014e-05+-2.78097602414912e-05)
variable C4${dir} equal 0.5*(${C4neg}+${C4pos})
variable C46 equal 0.5*(${C4neg}+${C4pos})
variable C46 equal 0.5*(-3.94810334168648e-08+${C4pos})
variable C46 equal 0.5*(-3.94810334168648e-08+4.12504314935752e-08)
variable C5${dir} equal 0.5*(${C5neg}+${C5pos})
variable C56 equal 0.5*(${C5neg}+${C5pos})
variable C56 equal 0.5*(-8.51174728548281e-08+${C5pos})
variable C56 equal 0.5*(-8.51174728548281e-08+8.61756842953789e-08)
variable C6${dir} equal 0.5*(${C6neg}+${C6pos})
variable C66 equal 0.5*(${C6neg}+${C6pos})
variable C66 equal 0.5*(31.5984236644519+${C6pos})
variable C66 equal 0.5*(31.5984236644519+31.5984236953682)

# Delete dir to make sure it is not reused

variable dir delete

# Output final values

variable C11all equal ${C11}
variable C11all equal 113.783322210147
variable C22all equal ${C22}
variable C22all equal 113.783322212024
variable C33all equal ${C33}
variable C33all equal 113.783322206452

variable C12all equal 0.5*(${C12}+${C21})
variable C12all equal 0.5*(61.5368327556279+${C21})
variable C12all equal 0.5*(61.5368327556279+61.5368327623542)
variable C13all equal 0.5*(${C13}+${C31})
variable C13all equal 0.5*(61.5368327519864+${C31})
variable C13all equal 0.5*(61.5368327519864+61.5368327529097)
variable C23all equal 0.5*(${C23}+${C32})
variable C23all equal 0.5*(61.5368327484218+${C32})
variable C23all equal 0.5*(61.5368327484218+61.5368327532316)

variable C44all equal ${C44}
variable C44all equal 31.5984236802174
variable C55all equal ${C55}
variable C55all equal 31.5984236837048
variable C66all equal ${C66}
variable C66all equal 31.59842367991

variable C14all equal 0.5*(${C14}+${C41})
variable C14all equal 0.5*(-3.19605560585049e-09+${C41})
variable C14all equal 0.5*(-3.19605560585049e-09+3.0750279387868e-09)
variable C15all equal 0.5*(${C15}+${C51})
variable C15all equal 0.5*(8.56851368864777e-10+${C51})
variable C15all equal 0.5*(8.56851368864777e-10+-2.0135975850478e-09)
variable C16all equal 0.5*(${C16}+${C61})
variable C16all equal 0.5*(-1.96218963471493e-09+${C61})
variable C16all equal 0.5*(-1.96218963471493e-09+8.90911133663756e-09)

variable C24all equal 0.5*(${C24}+${C42})
variable C24all equal 0.5*(-1.13618491511751e-08+${C42})
variable C24all equal 0.5*(-1.13618491511751e-08+4.89368864993005e-09)
variable C25all equal 0.5*(${C25}+${C52})
variable C25all equal 0.5*(-2.57055410660111e-09+${C52})
variable C25all equal 0.5*(-2.57055410660111e-09+-1.6162389995422e-09)
variable C26all equal 0.5*(${C26}+${C62})
variable C26all equal 0.5*(-9.25399478375179e-09+${C62})
variable C26all equal 0.5*(-9.25399478375179e-09+1.97074960130375e-09)

variable C34all equal 0.5*(${C34}+${C43})
variable C34all equal 0.5*(4.28800556909911e-09+${C43})
variable C34all equal 0.5*(4.28800556909911e-09+1.42772908499455e-09)
variable C35all equal 0.5*(${C35}+${C53})
variable C35all equal 0.5*(2.98773361684929e-09+${C53})
variable C35all equal 0.5*(2.98773361684929e-09+1.25743052985235e-09)
variable C36all equal 0.5*(${C36}+${C63})
variable C36all equal 0.5*(1.72066465510028e-09+${C63})
variable C36all equal 0.5*(1.72066465510028e-09+1.12536564042746e-08)

variable C45all equal 0.5*(${C45}+${C54})
variable C45all equal 0.5*(1.94719473575035e-09+${C54})
variable C45all equal 0.5*(1.94719473575035e-09+4.52953054867335e-09)
variable C46all equal 0.5*(${C46}+${C64})
variable C46all equal 0.5*(8.84699038355201e-10+${C64})
variable C46all equal 0.5*(8.84699038355201e-10+2.38204680545033e-09)
variable C56all equal 0.5*(${C56}+${C65})
variable C56all equal 0.5*(5.29105720275401e-10+${C65})
variable C56all equal 0.5*(5.29105720275401e-10+6.94585140887831e-09)

# Average moduli for cubic crystals

variable C11cubic equal (${C11all}+${C22all}+${C33all})/3.0
variable C11cubic equal (113.783322210147+${C22all}+${C33all})/3.0
variable C11cubic equal (113.783322210147+113.783322212024+${C33all})/3.0
variable C11cubic equal (113.783322210147+113.783322212024+113.783322206452)/3.0
variable C12cubic equal (${C12all}+${C13all}+${C23all})/3.0
variable C12cubic equal (61.5368327589911+${C13all}+${C23all})/3.0
variable C12cubic equal (61.5368327589911+61.536832752448+${C23all})/3.0
variable C12cubic equal (61.5368327589911+61.536832752448+61.5368327508267)/3.0
variable C44cubic equal (${C44all}+${C55all}+${C66all})/3.0
variable C44cubic equal (31.5984236802174+${C55all}+${C66all})/3.0
variable C44cubic equal (31.5984236802174+31.5984236837048+${C66all})/3.0
variable C44cubic equal (31.5984236802174+31.5984236837048+31.59842367991)/3.0

variable bulkmodulus equal (${C11cubic}+2*${C12cubic})/3.0
variable bulkmodulus equal (113.783322209541+2*${C12cubic})/3.0
variable bulkmodulus equal (113.783322209541+2*61.5368327540886)/3.0
variable shearmodulus1 equal ${C44cubic}
variable shearmodulus1 equal 31.5984236812774
variable shearmodulus2 equal (${C11cubic}-${C12cubic})/2.0
variable shearmodulus2 equal (113.783322209541-${C12cubic})/2.0
variable shearmodulus2 equal (113.783322209541-61.5368327540886)/2.0
variable poissonratio equal 1.0/(1.0+${C11cubic}/${C12cubic})
variable poissonratio equal 1.0/(1.0+113.783322209541/${C12cubic})
variable poissonratio equal 1.0/(1.0+113.783322209541/61.5368327540886)

# For Stillinger-Weber silicon, the analytical results
# are known to be (E. R. Cowley, 1988):
#               C11 = 151.4 GPa
#               C12 = 76.4 GPa
#               C44 = 56.4 GPa

print "========================================="
=========================================
print "Components of the Elastic Constant Tensor"
Components of the Elastic Constant Tensor
print "========================================="
=========================================

print "Elastic Constant C11all = ${C11all} ${cunits}"
Elastic Constant C11all = 113.783322210147 GPa
print "Elastic Constant C22all = ${C22all} ${cunits}"
Elastic Constant C22all = 113.783322212024 GPa
print "Elastic Constant C33all = ${C33all} ${cunits}"
Elastic Constant C33all = 113.783322206452 GPa

print "Elastic Constant C12all = ${C12all} ${cunits}"
Elastic Constant C12all = 61.5368327589911 GPa
print "Elastic Constant C13all = ${C13all} ${cunits}"
Elastic Constant C13all = 61.536832752448 GPa
print "Elastic Constant C23all = ${C23all} ${cunits}"
Elastic Constant C23all = 61.5368327508267 GPa

print "Elastic Constant C44all = ${C44all} ${cunits}"
Elastic Constant C44all = 31.5984236802174 GPa
print "Elastic Constant C55all = ${C55all} ${cunits}"
Elastic Constant C55all = 31.5984236837048 GPa
print "Elastic Constant C66all = ${C66all} ${cunits}"
Elastic Constant C66all = 31.59842367991 GPa

print "Elastic Constant C14all = ${C14all} ${cunits}"
Elastic Constant C14all = -6.0513833531845e-11 GPa
print "Elastic Constant C15all = ${C15all} ${cunits}"
Elastic Constant C15all = -5.78373108091511e-10 GPa
print "Elastic Constant C16all = ${C16all} ${cunits}"
Elastic Constant C16all = 3.47346085096131e-09 GPa

print "Elastic Constant C24all = ${C24all} ${cunits}"
Elastic Constant C24all = -3.23408025062252e-09 GPa
print "Elastic Constant C25all = ${C25all} ${cunits}"
Elastic Constant C25all = -2.09339655307165e-09 GPa
print "Elastic Constant C26all = ${C26all} ${cunits}"
Elastic Constant C26all = -3.64162259122402e-09 GPa

print "Elastic Constant C34all = ${C34all} ${cunits}"
Elastic Constant C34all = 2.85786732704683e-09 GPa
print "Elastic Constant C35all = ${C35all} ${cunits}"
Elastic Constant C35all = 2.12258207335082e-09 GPa
print "Elastic Constant C36all = ${C36all} ${cunits}"
Elastic Constant C36all = 6.48716052968744e-09 GPa

print "Elastic Constant C45all = ${C45all} ${cunits}"
Elastic Constant C45all = 3.23836264221185e-09 GPa
print "Elastic Constant C46all = ${C46all} ${cunits}"
Elastic Constant C46all = 1.63337292190277e-09 GPa
print "Elastic Constant C56all = ${C56all} ${cunits}"
Elastic Constant C56all = 3.73747856457686e-09 GPa

print "========================================="
=========================================
print "Average properties for a cubic crystal"
Average properties for a cubic crystal
print "========================================="
=========================================

print "Bulk Modulus = ${bulkmodulus} ${cunits}"
Bulk Modulus = 78.9523292392394 GPa
print "Shear Modulus 1 = ${shearmodulus1} ${cunits}"
Shear Modulus 1 = 31.5984236812774 GPa
print "Shear Modulus 2 = ${shearmodulus2} ${cunits}"
Shear Modulus 2 = 26.1232447277262 GPa
print "Poisson Ratio = ${poissonratio}"
Poisson Ratio = 0.35099691057685
Total wall time: 0:00:26
