LAMMPS (29 Sep 2021)
  using 1 OpenMP thread(s) per MPI task
Reading restart file ...
  restart file = 29 Sep 2021, LAMMPS = 29 Sep 2021
  restoring atom style atomic from restart
  orthogonal box = (-0.068718666 -0.063882205 0.0000000) to (101.71178 101.70695 620.30400)
  2 by 1 by 12 MPI processor grid
  pair style eam/alloy/gpu stores no restart info
  442392 atoms
  read_restart CPU = 0.116 seconds
Resetting global fix info from restart file:
  fix style: npt/gpu, fix ID: 2

CITE-CITE-CITE-CITE-CITE-CITE-CITE-CITE-CITE-CITE-CITE-CITE-CITE

Your simulation uses code contributions which should be cited:
- GPU package (short-range, long-range and three-body potentials):
The log file lists these citations in BibTeX format.

CITE-CITE-CITE-CITE-CITE-CITE-CITE-CITE-CITE-CITE-CITE-CITE-CITE


--------------------------------------------------------------------------
- Using acceleration for eam/alloy:
-  with 12 proc(s) per device.
-  Horizontal vector operations: ENABLED
-  Shared memory system: No
--------------------------------------------------------------------------
Device 0: Tesla V100-SXM2-32GB, 80 CUs, 28/32 GB, 1.5 GHZ (Mixed Precision)
Device 1: Tesla V100-SXM2-32GB, 80 CUs, 1.5 GHZ (Mixed Precision)
--------------------------------------------------------------------------

Initializing Device and compiling on process 0...Done.
Initializing Devices 0-1 on core 0...Done.
Initializing Devices 0-1 on core 1...Done.
Initializing Devices 0-1 on core 2...Done.
Initializing Devices 0-1 on core 3...Done.
Initializing Devices 0-1 on core 4...Done.
Initializing Devices 0-1 on core 5...Done.
Initializing Devices 0-1 on core 6...Done.
Initializing Devices 0-1 on core 7...Done.
Initializing Devices 0-1 on core 8...Done.
Initializing Devices 0-1 on core 9...Done.
Initializing Devices 0-1 on core 10...Done.
Initializing Devices 0-1 on core 11...Done.

All restart file global fix info was re-assigned
Unused restart file peratom fix info:
  fix style: STORE, fix ID: spatialbins_COMPUTE_STORE
Setting up Verlet run ...
  Unit style    : metal
  Current step  : 11000307
  Time step     : 0.00025
Per MPI rank memory allocation (min/avg/max) = 6.780 | 9.353 | 10.00 Mbytes
Step Time Temp PotEng E_pair TotEng Press Volume Lx Ly Lz CPULeft 
11000307            0    300.38469   -1712938.5   -1712938.5   -1695761.5    20.284733    6425286.2     101.7805    101.77083      620.304            0 
11010000      2.42325    300.38004   -1712915.6   -1712915.6   -1695738.8   -40.184307      6425502    101.78445     101.7703      620.304    7176.6826 
11020000      4.92325    299.39643     -1712942     -1712942   -1695821.4   -6.8161312    6425229.1    101.78207    101.76836      620.304    7123.4683 
11030000      7.42325    299.59275   -1712920.4   -1712920.4   -1695788.7   -34.382104    6425681.5     101.7803    101.77729      620.304    7073.2905 
11040000      9.92325    299.70286   -1712915.7   -1712915.7   -1695777.6    114.70286    6425022.6     101.7842    101.76295      620.304    7015.1158 
11050000     12.42325    300.23147   -1712932.5   -1712932.5   -1695764.2   -51.463439    6425336.7    101.78175    101.77038      620.304    6938.3672 
11060000     14.92325     300.2362   -1712936.5   -1712936.5     -1695768   -9.4084928    6425857.4    101.78574    101.77464      620.304    6863.3072 
11070000     17.42325    299.62642   -1712922.7   -1712922.7     -1695789    16.149786      6425266    101.78012    101.77089      620.304    6793.6694 
11080000     19.92325    300.22645   -1712951.7   -1712951.7   -1695783.7    13.326432    6425019.7     101.7843    101.76281      620.304    6727.5052 
11090000     22.42325    299.70442     -1712931     -1712931   -1695792.8   -29.430553    6425594.7    101.78685    101.76937      620.304    6651.7406 
11100000     24.92325    300.24116   -1712921.7   -1712921.7   -1695752.9   -21.935322      6425572    101.79586       101.76      620.304    6576.9168 
11110000     27.42325    300.03327   -1712955.6   -1712955.6   -1695798.7    52.073459      6425071     101.7845    101.76343      620.304    6503.7778 
11120000     29.92325    299.75523   -1712937.6   -1712937.6   -1695796.5    59.001703    6424956.1    101.77978    101.76632      620.304    6436.5438 
11130000     32.42325    299.63301     -1712899     -1712899   -1695764.9   -35.411381      6426247    101.79398    101.77256      620.304    6361.8296 
11140000     34.92325    300.00585   -1712925.5   -1712925.5   -1695770.1    24.779093    6425582.5    101.78708    101.76895      620.304    6287.2763 
11150000     37.42325    299.79575   -1712946.4   -1712946.4     -1695803   0.20298364    6425758.1    101.78665    101.77215      620.304    6212.6643 
11160000     39.92325    299.77541   -1712925.6   -1712925.6   -1695783.4    14.999202    6425943.3    101.79003    101.77171      620.304    6144.1704 
11170000     42.42325    299.80021   -1712935.1   -1712935.1   -1695791.5      70.0877      6425565    101.78871    101.76703      620.304    6069.7614 
11180000     44.92325    299.46764   -1712922.1   -1712922.1   -1695797.4   -35.657268    6425945.8    101.79238     101.7694      620.304    5995.4366 
11190000     47.42325    300.02991     -1712944     -1712944   -1695787.2   -20.987973    6425084.8     101.7772    101.77094      620.304    5921.1636 
11200000     49.92325    299.86771   -1712930.2   -1712930.2   -1695782.7   -29.160454      6425704    101.79068    101.76727      620.304    5851.9413 
11210000     52.42325    300.45201   -1712935.2   -1712935.2   -1695754.3   -129.74311    6425305.7     101.7847    101.76693      620.304    5778.0036 
11220000     54.92325    299.53927   -1712907.7   -1712907.7     -1695779   -102.53453    6425724.9    101.78488     101.7734      620.304    5704.1813 
11230000     57.42325    299.97725   -1712944.3   -1712944.3   -1695790.6   -34.093747    6425506.4    101.77809    101.77673      620.304    5630.3596 
11240000     59.92325    299.89773   -1712934.1   -1712934.1   -1695784.9   -88.150316    6425546.6    101.78901    101.76645      620.304    5560.2473 
11250000     62.42325    299.73438   -1712926.5   -1712926.5   -1695786.6   -14.493963    6426066.1    101.79055    101.77313      620.304    5486.2308 
11260000     64.92325    300.07295     -1712952     -1712952   -1695792.7    10.402101    6425666.6    101.78534    101.77201      620.304    5412.2521 
11270000     67.42325    300.44899   -1712958.2   -1712958.2   -1695777.4     38.65858    6425802.1    101.79412    101.76538      620.304    5338.4509 
11280000     69.92325    299.98011     -1712933     -1712933   -1695779.1    44.023717    6425646.6     101.7877    101.76934      620.304    5267.5496 
11290000     72.42325     300.1661   -1712932.1   -1712932.1   -1695767.5    37.214859    6426124.5    101.78703    101.77758      620.304    5193.6288 
11300000     74.92325     300.1564   -1712940.2   -1712940.2   -1695776.2    65.046452      6425277    101.77983    101.77135      620.304    5119.8227 
11310000     77.42325    300.26837   -1712947.1   -1712947.1   -1695776.7    87.642749    6425087.7    101.77881    101.76938      620.304    5046.1217 
11320000     79.92325    300.12673   -1712937.8   -1712937.8   -1695775.5   -31.837042    6425411.6    101.77904    101.77427      620.304    4974.5471 
11330000     82.42325    299.88208   -1712915.3   -1712915.3     -1695767   -22.208273    6425164.3    101.77376    101.77564      620.304    4901.1312 
11340000     84.92325    299.73839   -1712907.5   -1712907.5   -1695767.4   -82.058226      6425542    101.78207    101.77331      620.304    4827.5884 
11350000     87.42325    300.25781   -1712923.5   -1712923.5   -1695753.7   -9.8946203    6424854.6    101.78102    101.76348      620.304    4754.0648 
11360000     89.92325    299.89695   -1712923.1   -1712923.1   -1695773.9   -38.745077    6425571.3    101.77769    101.77816      620.304    4682.1189 
11370000     92.42325     300.1889   -1712931.6   -1712931.6   -1695765.8   -121.17188    6426033.4    101.78743    101.77574      620.304    4609.1443 
11380000     94.92325    299.74862   -1712913.3   -1712913.3   -1695772.7    10.402958    6425218.6    101.77046     101.7798      620.304    4535.5682 
11390000     97.42325    299.91927     -1712947     -1712947   -1695796.6   -108.43486    6426675.6    101.79697    101.77636      620.304    4461.9889 
11400000     99.92325    299.93733   -1712947.1   -1712947.1   -1695795.6   -11.220446    6426083.1    101.78619    101.77777      620.304    4389.5065 
11410000    102.42325    299.63022   -1712944.5   -1712944.5   -1695810.5   -49.484238    6426291.1    101.79163    101.77561      620.304    4316.6484 
11420000    104.92325    299.86516   -1712928.6   -1712928.6   -1695781.3    80.618909    6425200.2    101.77186    101.77811      620.304    4243.0268 
11430000    107.42325    299.80106   -1712934.7   -1712934.7     -1695791   -44.814394    6426520.2    101.79026    101.78061      620.304    4169.6232 
11440000    109.92325    300.12973   -1712925.1   -1712925.1   -1695762.6   -88.725725    6426246.9    101.79439    101.77215      620.304      4096.82 
11450000    112.42325    299.97548   -1712945.8   -1712945.8   -1695792.1    28.855928    6425016.6    101.78201    101.76505      620.304     4024.185 
11460000    114.92325    299.95556   -1712933.4   -1712933.4   -1695780.8  -0.90326079    6425314.9    101.78081    101.77098      620.304    3950.7616 
11470000    117.42325    299.98224   -1712952.6   -1712952.6   -1695798.5   -11.451448    6424933.1    101.78073    101.76501      620.304    3877.4604 
11480000    119.92325    299.88205   -1712945.9   -1712945.9   -1695797.6    -104.9676    6425470.1    101.79157    101.76267      620.304    3804.0722 
11490000    122.42325    300.17092   -1712922.6   -1712922.6   -1695757.8   -4.5620953    6424915.1    101.77977    101.76569      620.304    3731.4984 
11500000    124.92325    299.96121   -1712946.9   -1712946.9   -1695794.1   -19.844195    6425643.9     101.7901     101.7669      620.304    3658.4949 
11510000    127.42325    299.97548   -1712954.1   -1712954.1   -1695800.4   -3.5651198    6425205.8    101.78205    101.76801      620.304    3585.1344 
11520000    129.92325    300.09194   -1712919.2   -1712919.2   -1695758.8    60.444679      6425767    101.79207    101.76688      620.304    3511.7895 
11530000    132.42325    300.26867     -1712933     -1712933   -1695762.5   -13.858828    6426027.2    101.79132    101.77175      620.304    3438.9964 
11540000    134.92325    300.21066   -1712950.8   -1712950.8   -1695783.7    80.495459    6425283.8    101.78306    101.76823      620.304      3366.11 
11550000    137.42325    299.53827   -1712922.9   -1712922.9   -1695794.2    97.929244    6425268.3    101.77603    101.77502      620.304    3292.7641 
11560000    139.92325    299.79399   -1712962.1   -1712962.1   -1695818.8   -18.927452    6425772.1    101.79015    101.76888      620.304    3219.4382 
11570000    142.42325    300.09745   -1712942.9   -1712942.9   -1695782.3   -9.3608023    6424895.7    101.77883    101.76631      620.304    3146.3907 
11580000    144.92325    300.78815   -1712965.1   -1712965.1     -1695765    32.341122    6424955.9    101.77938    101.76672      620.304    3073.5986 
11590000    147.42325    299.98725   -1712929.2   -1712929.2   -1695774.9   -43.005881    6425137.5    101.78904    101.75994      620.304    3000.3172 
11600000    149.92325    299.65205   -1712937.8   -1712937.8   -1695802.7   -63.400546    6425180.8    101.78686     101.7628      620.304    2927.0443 
11610000    152.42325    299.76266   -1712938.6   -1712938.6   -1695797.1    38.934199    6424888.3    101.77483     101.7702      620.304    2853.8592 
11620000    154.92325    299.93984   -1712940.9   -1712940.9   -1695789.2    39.492016      6425114    101.77045    101.77815      620.304    2781.1815 
11630000    157.42325    299.74019   -1712905.4   -1712905.4   -1695765.2    18.713847    6425947.7     101.7904    101.77141      620.304    2707.8893 
11640000    159.92325    300.53432   -1712917.3   -1712917.3   -1695731.7   -43.545886    6426233.6     101.7989    101.76743      620.304    2634.5959 
11650000    162.42325    300.30956   -1712930.8   -1712930.8     -1695758    101.02959    6426000.9    101.79645     101.7662      620.304    2561.2978 
11660000    164.92325    299.57211     -1712938     -1712938   -1695807.4     102.8356    6425463.5    101.78695    101.76719      620.304    2488.5737 
11670000    167.42325    300.08332   -1712917.5   -1712917.5   -1695757.7   -38.118544    6426326.2     101.7884     101.7794      620.304    2415.2896 
11680000    169.92325    299.89629   -1712945.4   -1712945.4   -1695796.3    123.22072    6425024.2    101.77675    101.77043      620.304    2342.0536 
11690000    172.42325    300.03948   -1712923.8   -1712923.8   -1695766.5     28.92855    6425565.9    101.78883    101.76693      620.304    2268.8088 
11700000    174.92325    300.16069   -1712937.7   -1712937.7   -1695773.4    15.415471    6425479.8    101.78499     101.7694      620.304    2196.0536 
11710000    177.42325    300.25794   -1712944.8   -1712944.8     -1695775   -38.054066    6425633.4    101.78283      101.774      620.304    2122.8089 
11720000    179.92325     300.4434   -1712946.9   -1712946.9   -1695766.5   -5.4211818    6425733.5    101.78554    101.77287      620.304    2049.5735 
11730000    182.42325    300.39379   -1712930.2   -1712930.2   -1695752.7    -28.94952    6425421.9    101.78552    101.76796      620.304    1976.3991 
11740000    184.92325     300.2947   -1712956.6   -1712956.6   -1695784.7    134.11118    6424547.5    101.78158    101.75805      620.304    1903.5654 
11750000    187.42325    299.82924   -1712920.4   -1712920.4   -1695775.1    22.461648    6425178.6    101.79044    101.75919      620.304    1830.3592 
11760000    189.92325    300.27637   -1712955.1   -1712955.1   -1695784.3    12.724845    6425378.8     101.7884     101.7644      620.304     1757.151 
11770000    192.42325    300.26869   -1712942.2   -1712942.2   -1695771.8    70.262781    6425222.6    101.78572     101.7646      620.304    1683.9661 
11780000    194.92325    300.54504   -1712953.6   -1712953.6   -1695767.3   -66.906258    6425985.1     101.7922     101.7702      620.304    1611.0681 
11790000    197.42325    299.98269   -1712936.7   -1712936.7   -1695782.6     36.29068    6425586.5    101.78578     101.7703      620.304    1537.8874 
11800000    199.92325    300.37895   -1712935.7   -1712935.7     -1695759     8.496251      6425691    101.78802    101.76972      620.304     1464.691 
11810000    202.42325    299.89878   -1712941.1   -1712941.1   -1695791.8    -24.80551    6426261.6    101.78479    101.78199      620.304    1391.5113 
11820000    204.92325    299.78275   -1712948.9   -1712948.9   -1695806.2   -2.1367286    6425980.1     101.7816    101.78072      620.304    1318.5155 
11830000    207.42325    299.53006     -1712933     -1712933   -1695804.8   -2.8636967    6426142.4    101.80059    101.76431      620.304    1245.3713 
11840000    209.92325    300.17756   -1712942.1   -1712942.1   -1695776.9    112.43467    6425632.6    101.78526    101.77155      620.304    1172.1788 
11850000    212.42325    300.49613     -1712926     -1712926   -1695742.6   -34.221611    6425853.6    101.79265    101.76766      620.304    1099.0073 
11860000    214.92325    300.04462   -1712933.1   -1712933.1   -1695775.5   -72.574882    6425958.8    101.79113    101.77085      620.304    1025.9517 
11870000    217.42325    300.38174   -1712950.8   -1712950.8   -1695773.9     60.68456    6424555.2    101.78002    101.75973      620.304    952.85235 
11880000    219.92325    300.15561   -1712935.5   -1712935.5   -1695771.6    18.385267    6424804.7    101.78284    101.76087      620.304     879.6978 
11890000    222.42325    300.40327   -1712933.4   -1712933.4   -1695755.3    -66.25546    6425170.8    101.78192    101.76759      620.304    806.54481 
11900000    224.92325    300.08503   -1712935.2   -1712935.2   -1695775.3    3.7573578    6425137.7    101.77701    101.77196      620.304    733.44312 
11910000    227.42325    299.76789   -1712912.3   -1712912.3   -1695770.5   -63.870357    6426013.6    101.78735     101.7755      620.304     660.3722 
11920000    229.92325     299.8233   -1712940.5   -1712940.5   -1695795.5   -1.8606168    6425879.9    101.79338    101.76736      620.304    587.22511 
11930000    232.42325    300.12264   -1712932.3   -1712932.3   -1695770.2     137.1221    6425530.9    101.78857    101.76664      620.304     514.0768 
11940000    234.92325     300.7593   -1712936.3   -1712936.3   -1695737.9    96.172224    6425614.3    101.78651    101.77002      620.304    440.95064 
11950000    237.42325    300.49156   -1712950.4   -1712950.4   -1695767.2   -118.62214      6427231    101.80222    101.77992      620.304    367.86614 
11960000    239.92325    300.00677   -1712943.7   -1712943.7   -1695788.3   -69.260076    6425951.7    101.79567     101.7662      620.304    294.73153 
11970000    242.42325    300.58344   -1712933.3   -1712933.3   -1695744.9   -45.270261    6426137.8    101.78864    101.77618      620.304    221.60259 
11980000    244.92325    300.22279   -1712934.7   -1712934.7   -1695766.9    16.718689    6425417.4    101.79616    101.75725      620.304    148.47896 
11990000    247.42325    299.85375   -1712916.7   -1712916.7     -1695770   -81.948486    6425884.2    101.78528    101.77552      620.304    75.371363 
12000000    249.92325     300.3588   -1712923.7   -1712923.7   -1695748.2   -68.673902    6425514.7    101.79019    101.76476      620.304    2.2449106 
12000307          250    300.08471   -1712948.3   -1712948.3   -1695788.4    24.271146    6425094.9    101.78892    101.75938      620.304            0 
Loop time of 7312.42 on 24 procs for 1000000 steps with 442392 atoms

Performance: 2.954 ns/day, 8.125 hours/ns, 136.754 timesteps/s
99.9% CPU use with 24 MPI tasks x 1 OpenMP threads

MPI task timing breakdown:
Section |  min time  |  avg time  |  max time  |%varavg| %total
---------------------------------------------------------------
Pair    | 2578.8     | 3504.5     | 4147.5     | 748.3 | 47.93
Neigh   | 0.17551    | 0.45372    | 0.5536     |  14.4 |  0.01
Comm    | 576.91     | 718.15     | 850.52     | 320.6 |  9.82
Output  | 3.5677     | 3.5696     | 3.5718     |   0.1 |  0.05
Modify  | 2054       | 2736.7     | 3679.2     | 793.0 | 37.42
Other   |            | 349.1      |            |       |  4.77

Nlocal:        18433.0 ave       20821 max       15330 min
Histogram: 4 0 0 4 0 4 4 2 2 4
Nghost:        18563.1 ave       20755 max       11800 min
Histogram: 4 0 0 0 0 0 0 4 4 12
Neighs:         0.00000 ave           0 max           0 min
Histogram: 24 0 0 0 0 0 0 0 0 0

Total # of neighbors = 0
Ave neighs/atom = 0.0000000
Neighbor list builds = 2459
Dangerous builds = 0
System init for write_restart ...


---------------------------------------------------------------------
      Device Time Info (average): 
---------------------------------------------------------------------
Data Transfer:   420.0937 s.
Neighbor copy:   0.0938 s.
Neighbor build:  4.9014 s.
Force calc:      1925.4800 s.
Device Overhead: 1317.4733 s.
Average split:   1.0000.
Lanes / atom:    4.
Vector width:    32.
Max Mem / Proc:  35.45 MB.
CPU Neighbor:    1.1641 s.
CPU Cast/Pack:   482.4110 s.
CPU Driver_Time: 18.6592 s.
CPU Idle_Time:   1061.9201 s.
---------------------------------------------------------------------


--------------------------------------------------------------------------
- Using acceleration for eam/alloy:
-  with 12 proc(s) per device.
-  Horizontal vector operations: ENABLED
-  Shared memory system: No
--------------------------------------------------------------------------
Device 0: Tesla V100-SXM2-32GB, 80 CUs, 28/32 GB, 1.5 GHZ (Mixed Precision)
Device 1: Tesla V100-SXM2-32GB, 80 CUs, 1.5 GHZ (Mixed Precision)
--------------------------------------------------------------------------

Initializing Device and compiling on process 0...Done.
Initializing Devices 0-1 on core 0...Done.
Initializing Devices 0-1 on core 1...Done.
Initializing Devices 0-1 on core 2...Done.
Initializing Devices 0-1 on core 3...Done.
Initializing Devices 0-1 on core 4...Done.
Initializing Devices 0-1 on core 5...Done.
Initializing Devices 0-1 on core 6...Done.
Initializing Devices 0-1 on core 7...Done.
Initializing Devices 0-1 on core 8...Done.
Initializing Devices 0-1 on core 9...Done.
Initializing Devices 0-1 on core 10...Done.
Initializing Devices 0-1 on core 11...Done.

System init for write_data ...

--------------------------------------------------------------------------
- Using acceleration for eam/alloy:
-  with 12 proc(s) per device.
-  Horizontal vector operations: ENABLED
-  Shared memory system: No
--------------------------------------------------------------------------
Device 0: Tesla V100-SXM2-32GB, 80 CUs, 28/32 GB, 1.5 GHZ (Mixed Precision)
Device 1: Tesla V100-SXM2-32GB, 80 CUs, 1.5 GHZ (Mixed Precision)
--------------------------------------------------------------------------

Initializing Device and compiling on process 0...Done.
Initializing Devices 0-1 on core 0...Done.
Initializing Devices 0-1 on core 1...Done.
Initializing Devices 0-1 on core 2...Done.
Initializing Devices 0-1 on core 3...Done.
Initializing Devices 0-1 on core 4...Done.
Initializing Devices 0-1 on core 5...Done.
Initializing Devices 0-1 on core 6...Done.
Initializing Devices 0-1 on core 7...Done.
Initializing Devices 0-1 on core 8...Done.
Initializing Devices 0-1 on core 9...Done.
Initializing Devices 0-1 on core 10...Done.
Initializing Devices 0-1 on core 11...Done.

Total wall time: 2:01:57
