LAMMPS (29 Sep 2021)
  using 1 OpenMP thread(s) per MPI task
Reading data file ...
  orthogonal box = (-0.55769526 -0.47818063 0.0000000) to (101.85676 101.77725 528.38451)
  3 by 2 by 16 MPI processor grid
  reading atoms ...
  434962 atoms
  reading velocities ...
  434962 velocities
  read_data CPU = 4.125 seconds
217465 atoms in group g_left
217497 atoms in group g_right

CITE-CITE-CITE-CITE-CITE-CITE-CITE-CITE-CITE-CITE-CITE-CITE-CITE

Your simulation uses code contributions which should be cited:
- @article{cjiang2012
The log file lists these citations in BibTeX format.

CITE-CITE-CITE-CITE-CITE-CITE-CITE-CITE-CITE-CITE-CITE-CITE-CITE

Neighbor list info ...
  update every 1 steps, delay 10 steps, check yes
  max neighbors/atom: 2000, page size: 100000
  master list distance cutoff = 8.28721
  ghost atom cutoff = 8.28721
  binsize = 4.143605, bins = 25 25 128
  3 neighbor lists, perpetual/occasional/extra = 3 0 0
  (1) pair eam/alloy, perpetual, skip from (3)
      attributes: half, newton on
      pair build: skip
      stencil: none
      bin: none
  (2) pair edip/multi, perpetual
      attributes: full, newton on
      pair build: full/bin/atomonly
      stencil: full/bin/3d
      bin: standard
  (3) neighbor class addition, perpetual, half/full from (2)
      attributes: half, newton on
      pair build: halffull/newton
      stencil: none
      bin: none
Setting up Verlet run ...
  Unit style    : metal
  Current step  : 0
  Time step     : 0.00025
Per MPI rank memory allocation (min/avg/max) = 8.763 | 12.51 | 14.56 Mbytes
Step Time Temp Press PotEng KinEng TotEng Volume 
       0            0    18393.522    196309.95   -1918186.5    1034141.2   -884045.24    5533471.8 
     100        0.025    18391.864    196864.05   -1918179.6      1034048   -884131.63    5517763.2 
     200         0.05    18391.421    197447.76   -1918180.1    1034023.1   -884157.03    5502054.5 
     300        0.075    18391.456     197933.8   -1918165.2      1034025   -884140.13    5486345.9 
     400          0.1    18391.668    198562.71   -1918169.8      1034037   -884132.82    5470637.2 
     500        0.125    18391.509    199083.34     -1918178      1034028   -884149.92    5454928.6 
     600         0.15     18390.86    199650.77   -1918178.5    1033991.6   -884186.91    5439219.9 
     700        0.175    18390.885    200290.82   -1918177.2      1033993   -884184.22    5423511.3 
     800          0.2    18390.675    200962.27   -1918163.1    1033981.2   -884181.91    5407802.6 
     900        0.225    18390.338     201337.7   -1918160.7    1033962.2   -884198.45      5392094 
    1000         0.25     18390.93    201838.07   -1918197.4    1033995.5    -884201.9    5376385.3 
    1100        0.275    18391.177    202373.11     -1918200    1034009.4   -884190.67    5360676.7 
    1200          0.3    18390.181    203154.18     -1918147    1033953.4   -884193.58      5344968 
    1300        0.325    18390.662    203707.47   -1918173.6    1033980.4   -884193.13    5329259.4 
    1400         0.35     18390.71     204408.4   -1918183.7    1033983.1   -884200.57    5313550.7 
    1500        0.375    18390.554    204911.35   -1918178.1    1033974.4   -884203.72    5297842.1 
    1600          0.4    18391.462    205448.96   -1918218.6    1034025.4   -884193.17    5282133.4 
    1700        0.425    18394.363    205905.85   -1918385.9    1034188.5   -884197.42    5266424.8 
    1800         0.45    18369.092    210478.32   -1916980.7    1032767.7   -884213.02    5250716.1 
    1900        0.475    18265.504    223457.21   -1911178.1    1026943.7   -884234.39    5235007.5 
    2000          0.5    18155.293    236589.48   -1904992.3    1020747.3   -884245.03    5219298.8 
    2100        0.525    18046.085    248815.83   -1898859.5    1014607.2   -884252.24    5203590.2 
    2200         0.55     17932.65    256793.28   -1892498.9    1008229.6   -884269.34    5187881.5 
    2300        0.575    17833.606    261250.37   -1886965.3      1002661   -884304.29    5172172.9 
    2400          0.6    17722.071    269164.17   -1880686.7    996390.14   -884296.57    5156464.2 
    2500        0.625    17593.158    278474.34   -1873438.5    989142.24    -884296.3    5140755.6 
    2600         0.65    17458.992    288303.53   -1865894.2    981599.02   -884295.17    5125046.9 
    2700        0.675    17329.134    298230.31     -1858606    974297.99   -884307.98    5109338.3 
    2800          0.7     17193.17    309323.45   -1850955.2    966653.69   -884301.47    5093629.6 
    2900        0.725     17061.29    320109.55   -1843532.4    959238.97   -884293.45      5077921 
    3000         0.75    16917.581    331085.86   -1835405.7    951159.25   -884246.49    5062212.3 
    3100        0.775    16775.501    341153.23   -1827408.6    943171.01   -884237.57    5046503.7 
    3200          0.8    16628.794    351707.84   -1819178.1    934922.74   -884255.35      5030795 
    3300        0.825    16484.777    362173.86   -1811080.9    926825.64   -884255.24    5015086.4 
    3400         0.85    16336.732    372727.28   -1802764.7    918502.06   -884262.59    4999377.7 
    3500        0.875    16189.989    383775.59   -1794502.5    910251.74   -884250.74    4983669.1 
    3600          0.9    16042.718    394235.25     -1786247    901971.71   -884275.33    4967960.4 
    3700        0.925    15893.936    404429.98   -1777894.7    893606.73   -884288.02    4952251.8 
    3800         0.95     15742.38    415797.98     -1769373    885085.74    -884287.3    4936543.1 
    3900        0.975    15593.514    425802.21   -1760998.6    876716.02   -884282.62    4920834.5 
    4000            1    15441.729    436417.97   -1752467.1    868182.22   -884284.89    4905125.8 
    4100        1.025    15293.511     446793.9   -1744128.3    859848.92   -884279.42    4889417.2 
    4200         1.05     15140.73    457299.82   -1735531.7    851259.11   -884272.55    4873708.5 
    4300        1.075    14987.872    468139.14     -1726934    842664.97   -884269.04    4857999.9 
    4400          1.1    14833.597    478620.69   -1718245.3    833991.11   -884254.19    4842291.2 
    4500        1.125    14683.453    489332.43   -1709776.6    825549.56      -884227    4826582.6 
    4600         1.15    14528.907     498874.7   -1701048.4    816860.51   -884187.89    4810873.9 
    4700        1.175    14375.225    509359.23     -1692397    808220.03   -884176.97    4795165.3 
    4800          1.2    14218.844    519699.53   -1683604.4    799427.81   -884176.57    4779456.6 
    4900        1.225    14064.949    529957.72   -1674954.8    790775.34   -884179.48      4763748 
    5000         1.25    13906.067    540561.72   -1666022.1    781842.49   -884179.65    4748039.3 
    5100        1.275    13747.792    551433.38   -1657108.8    772943.79   -884164.98    4732330.7 
    5200          1.3    13671.349    558368.26   -1652805.4    768645.94   -884159.47      4716622 
    5300        1.325    13729.827    557224.41     -1656106    771933.76   -884172.24    4700913.4 
    5400         1.35    13615.544    554764.32     -1649676     765508.4   -884167.58    4685204.7 
    5500        1.375    13565.161    555238.48   -1646857.4     762675.7   -884181.71    4669496.1 
    5600          1.4    13602.542     556980.8   -1648960.7    764777.38   -884183.37    4653787.4 
    5700        1.425    13556.545    560285.42   -1646391.1    762191.27   -884199.81    4638078.7 
    5800         1.45    13553.497    562924.48   -1646210.3    762019.94   -884190.34    4622370.1 
    5900        1.475    13568.441    562916.49   -1647018.2    762860.14    -884158.1    4606661.4 
    6000          1.5    13531.335    562711.37   -1644915.8    760773.89   -884141.87    4590952.8 
    6100        1.525     13545.13    562793.56   -1645695.4    761549.52   -884145.89    4575244.1 
    6200         1.55    13539.033    564309.24   -1645362.7    761206.73   -884155.97    4559535.5 
    6300        1.575    13508.581    566112.71   -1643648.5    759494.57   -884153.91    4543826.8 
    6400          1.6    13417.231     573763.1   -1638525.7    754358.63   -884167.06    4528118.2 
    6500        1.625    13324.863    575154.64   -1633328.6    749165.42    -884163.2    4512409.5 
    6600         1.65    13186.282    579257.15   -1625509.3    741373.95   -884135.37    4496700.9 
    6700        1.675    13085.439    589242.28   -1619832.1    735704.22   -884127.91    4480992.2 
    6800          1.7    12958.536    594613.53   -1612685.7    728569.35   -884116.39    4465283.6 
    6900        1.725    12807.501     599643.5   -1604200.4    720077.71   -884122.67    4449574.9 
    7000         1.75    12679.576    608545.18   -1597004.8    712885.36   -884119.42    4433866.3 
    7100        1.775    12527.807     619032.2     -1588449    704352.41   -884096.64    4418157.6 
    7200          1.8    12359.288    626587.46   -1578958.7    694877.75   -884080.92      4402449 
    7300        1.825     12190.25    636630.43   -1569459.3    685373.92   -884085.34    4386740.3 
    7400         1.85    12008.413    647617.49   -1559254.5    675150.48   -884103.98    4371031.7 
    7500        1.875    11821.211    659389.92   -1548766.6    664625.37   -884141.22      4355323 
    7600          1.9    11621.418    671722.75     -1537536    653392.38   -884143.57    4339614.4 
    7700        1.925    11425.701    685779.66     -1526515    642388.57   -884126.41    4323905.7 
    7800         1.95    11218.303    700246.74   -1514857.8    630728.02   -884129.77    4308197.1 
    7900        1.975    11005.731     714546.2   -1502913.6    618776.57   -884136.98    4292488.4 
    8000            2    10798.167    729904.24   -1491240.1    607106.68   -884133.37    4276779.8 
    8100        2.025    10587.022    746022.06     -1479359    595235.44   -884123.57    4261071.1 
    8200         2.05    10383.577    761304.55   -1467930.9    583797.12   -884133.78    4245362.5 
    8300        2.075    10181.063     777145.1   -1456563.6    572411.15   -884152.47    4229653.8 
    8400          2.1    9996.3389     792734.2   -1446179.6    562025.38   -884154.25    4213945.2 
    8500        2.125    9827.5709    807948.12   -1436683.9    552536.71   -884147.22    4198236.5 
    8600         2.15    9665.8866    822229.89   -1427556.2    543446.32   -884109.86    4182527.9 
    8700        2.175    9520.2821    835849.95   -1419354.6    535259.98   -884094.63    4166819.2 
    8800          2.2    9390.5304    847578.58   -1412047.9    527964.94   -884082.94    4151110.6 
    8900        2.225    9267.0382    860102.49   -1405115.2    521021.82   -884093.34    4135401.9 
    9000         2.25    9160.3041    871981.18   -1399126.2    515020.89   -884105.26    4119693.3 
    9100        2.275    9057.6105    883823.76   -1393357.8    509247.14   -884110.66    4103984.6 
    9200          2.3     8950.704    897494.97   -1387345.3    503236.52   -884108.78      4088276 
    9300        2.325    8859.8445    910889.09   -1382227.5    498128.12   -884099.41    4072567.3 
    9400         2.35    8918.5476    918578.15   -1385525.8    501428.59   -884097.18    4056858.7 
    9500        2.375    8949.0061    919010.07     -1387240    503141.06   -884098.91      4041150 
    9600          2.4     8922.411    919135.54   -1385756.5     501645.8   -884110.66    4025441.4 
    9700        2.425    8956.4902     923641.2     -1387654    503561.84   -884092.15    4009732.7 
    9800         2.45     8973.078    933272.85   -1388581.3    504494.46   -884086.81    3994024.1 
    9900        2.475    8948.9306    939696.37   -1387224.8    503136.82   -884087.96    3978315.4 
   10000          2.5     8997.798    942209.44     -1389988    505884.29   -884103.69    3962606.8 
   10100        2.525    8982.7448    944448.18   -1389151.2    505037.96   -884113.23    3946898.1 
   10200         2.55    8989.3145    947997.38     -1389527    505407.32    -884119.7    3931189.5 
   10300        2.575    9008.0812    953245.14   -1390566.7    506462.45   -884104.28    3915480.8 
   10400          2.6     8995.448    958150.38   -1389863.4    505752.17   -884111.22    3899772.2 
   10500        2.625    8949.1382    966266.65     -1387256    503148.49   -884107.55    3884063.5 
   10600         2.65    8856.7102    976331.69   -1382062.7     497951.9   -884110.82    3868354.9 
   10700        2.675    8687.7903    981301.85   -1372576.9    488454.69   -884122.17    3852646.2 
   10800          2.7    8591.2027    992776.65   -1367155.6    483024.23   -884131.33    3836937.6 
   10900        2.725     8397.621    1008975.1   -1356280.9    472140.47   -884140.39    3821228.9 
   11000         2.75    8238.9492    1018263.9   -1347347.7    463219.45   -884128.21    3805520.3 
   11100        2.775    8015.6853    1032432.6   -1334782.8    450666.85   -884115.93    3789811.6 
   11200          2.8    7815.0304    1052181.4   -1323477.9     439385.4    -884092.5    3774102.9 
   11300        2.825    7591.3524    1072223.2   -1310883.5    426809.53   -884073.97    3758394.3 
   11400         2.85     7356.875    1091588.5   -1297721.9    413626.48   -884095.39    3742685.6 
   11500        2.875     7116.915    1112429.7   -1284236.6    400135.18   -884101.37      3726977 
   11600          2.9    6900.8454    1135872.3     -1272108    387987.07   -884120.92    3711268.3 
   11700        2.925    6678.5324    1156746.1   -1259602.6    375487.94   -884114.68    3695559.7 
   11800         2.95    6471.8926    1178976.7   -1247971.8    363870.01   -884101.75      3679851 
   11900        2.975    6284.7541    1200562.8     -1237439     353348.5   -884090.48    3664142.4 
   12000            3    6115.3836    1219686.6   -1227918.9    343825.96   -884092.94    3648433.7 
   12100        3.025    5959.6912    1239630.2   -1219185.6    335072.44   -884113.19    3632725.1 
   12200         3.05    5831.7565    1256153.6   -1211996.7    327879.56   -884117.14    3617016.4 
   12300        3.075     5714.397    1273363.7   -1205404.8    321281.24   -884123.52    3601307.8 
   12400          3.1    5611.6082    1289099.7     -1199614    315502.13   -884111.83    3585599.1 
   12500        3.125    5519.1185    1305018.3   -1194389.2    310302.07    -884087.1    3569890.5 
   12600         3.15    5437.1502    1318694.9   -1189778.8    305693.56   -884085.27    3554181.8 
   12700        3.175    5355.7509    1334887.9   -1185188.8    301117.03   -884071.79    3538473.2 
   12800          3.2    5279.0094    1349077.4   -1180870.2    296802.39   -884067.84    3522764.5 
   12900        3.225    5195.4465    1363640.5   -1176165.9    292104.22   -884061.64    3507055.9 
   13000         3.25    5108.7722    1379383.9   -1171292.1    287231.12   -884060.93    3491347.2 
   13100        3.275    5036.0092    1393461.3   -1167183.3    283140.16    -884043.1    3475638.6 
   13200          3.3    4923.9855    1407833.7   -1160871.3    276841.84   -884029.42    3459929.9 
   13300        3.325    4807.2177    1425303.2   -1154334.4    270276.79    -884057.6    3444221.3 
   13400         3.35     4691.825    1442923.7   -1147848.7    263789.05    -884059.6    3428512.6 
   13500        3.375    4569.7138    1456265.8   -1140985.9    256923.58   -884062.37      3412804 
   13600          3.4    4582.4907    1461154.6   -1141702.4    257641.93   -884060.44    3397095.3 
   13700        3.425    4588.4212    1456841.4   -1142025.8    257975.36    -884050.4    3381386.7 
   13800         3.45    4533.6132    1454874.6   -1138946.3    254893.89   -884052.37      3365678 
   13900        3.475     4528.842    1453714.5   -1138537.2    254625.64    -883911.6    3349969.4 
   14000          3.5    4483.3183    1459688.1   -1135882.5    252066.15   -883816.37    3334260.7 
   14100        3.525    4433.2102    1471306.4   -1124770.1    249248.92   -875521.21    3318552.1 
   14200         3.55    4872.8032    1492685.5   -1111257.4    273964.21   -837293.22    3302843.4 
   14300        3.575    4773.7158    1514834.8   -1084501.4    268393.21   -816108.19    3287134.8 
   14400          3.6    4824.4891    1546935.5   -1067152.8    271247.84   -795904.98    3271426.1 
   14500        3.625     4954.744    1594893.8   -1034815.4    278571.18   -756244.27    3255717.5 
   14600         3.65    5065.9877    1637738.7   -1000835.9    284825.64   -716010.28    3240008.8 
   14700        3.675    5249.9663    1695442.3   -968409.38     295169.5   -673239.89    3224300.2 
   14800          3.7    5572.5078    1746308.8   -935332.35    313303.78   -622028.56    3208591.5 
   14900        3.725    5860.9315      1799571   -902548.79    329519.86   -573028.93    3192882.9 
   15000         3.75    6217.3085    1852248.3    -872588.9    349556.49   -523032.41    3177174.2 
   15100        3.775    6605.8248    1901691.9   -842853.06    371400.09   -471452.97    3161465.6 
   15200          3.8    7027.6445    1952955.9   -816345.13    395116.11   -421229.02    3145756.9 
   15300        3.825    7423.7029    2000804.2   -790043.33    417383.76   -372659.58    3130048.3 
   15400         3.85    7826.9596    2050932.7   -765272.63     440056.1   -325216.53    3114339.6 
   15500        3.875    8243.3793    2099430.2   -741355.44    463468.52   -277886.92      3098631 
   15600          3.9    8616.5262    2148185.5   -717100.44    484448.01   -232652.44    3082922.3 
   15700        3.925    8975.5817    2197136.6   -692866.11    504635.22   -188230.89    3067213.7 
   15800         3.95    9294.1054    2249754.2      -666115    522543.62   -143571.38      3051505 
   15900        3.975    9523.2274      2305270   -635678.04    535425.58   -100252.47    3035796.4 
   16000            4    9707.5594      2363160   -603493.94     545789.3   -57704.643    3020087.7 
   16100        4.025    9922.2986    2421979.6   -573024.84     557862.6   -15162.238    3004379.1 
   16200         4.05     10250.66    2474833.7   -549140.69    576324.13    27183.443    2988670.4 
   16300        4.075    10738.896    2510079.3   -534244.98    603774.23    69529.255    2972961.8 
   16400          4.1    11252.998    2540718.8   -519713.26    632678.67    112965.42    2957253.1 
   16500        4.125    11702.275    2580503.5    -502034.9    657938.45    155903.55    2941544.5 
   16600         4.15    12076.495    2640679.7   -478716.57    678978.25    200261.68    2925835.8 
   16700        4.175    12405.268    2711767.5   -451056.58    697462.88     246406.3    2910127.1 
   16800          4.2    12671.541    2777552.5   -417230.08    712433.61    295203.54    2894418.5 
   16900        4.225    12961.761    2849051.1   -382312.58    728750.68     346438.1    2878709.8 
   17000         4.25    13259.117    2930802.2   -345679.76    745468.97     399789.2    2863001.2 
   17100        4.275     13624.81    3011424.8   -310517.61    766029.36    455511.75    2847292.5 
   17200          4.3    13994.556      3086684   -276916.79    786817.62    509900.83    2831583.9 
   17300        4.325    14327.584    3162277.6   -244223.76    805541.49    561317.73    2815875.2 
   17400         4.35    14616.664    3239312.3   -212491.78    821794.47    609302.69    2800166.6 
   17500        4.375    14806.695    3315727.7   -178708.94    832478.64    653769.69    2784457.9 
   17600          4.4    14908.154    3394269.6   -143810.76    838182.95    694372.19    2768749.3 
   17700        4.425    14978.062    3471197.9   -110789.72    842113.42    731323.71    2753040.6 
   17800         4.45    15054.174    3544518.5   -79736.786    846392.68    766655.89      2737332 
   17900        4.475    15196.296    3613463.3   -52945.032     854383.2    801438.17    2721623.3 
   18000          4.5    15468.919    3675979.8   -31215.897    869710.91    838495.01    2705914.7 
   18100        4.525    15900.398    3732225.3   -12794.187       893970    881175.81      2690206 
   18200         4.55    16503.013    3788008.5    3547.0877     927850.9    931397.99    2674497.4 
   18300        4.575    17185.602    3845314.5    21596.277    966228.18    987824.46    2658788.7 
   18400          4.6    17963.047    3907356.7    38050.335    1009938.6    1047988.9    2643080.1 
   18500        4.625    18764.079    3976657.2    56078.925    1054975.1      1111054    2627371.4 
   18600         4.65    19617.568    4051721.5    72682.735    1102960.9    1175643.7    2611662.8 
   18700        4.675    20485.061    4133245.9    89612.562    1151734.1    1241346.7    2595954.1 
   18800          4.7    21332.424    4212959.7    107415.39    1199375.5    1306790.9    2580245.5 
   18900        4.725    22070.675    4301343.7    130940.53    1240882.3    1371822.8    2564536.8 
   19000         4.75    22663.182    4399472.8    161247.43    1274194.8    1435442.3    2548828.2 
   19100        4.775     23185.32    4498448.9    194103.36      1303551    1497654.4    2533119.5 
   19200          4.8    23656.322    4598928.3    229074.85    1330032.3    1559107.1    2517410.9 
   19300        4.825    24065.113    4698081.8    265412.89    1353015.8    1618428.7    2501702.2 
   19400         4.85    24476.944    4798242.8    301091.13    1376170.2    1677261.3    2485993.6 
   19500        4.875    24895.922    4898547.5    336232.32    1399726.4    1735958.8    2470284.9 
   19600          4.9    25300.707    4997360.6    371041.17    1422484.7    1793525.9    2454576.3 
   19700        4.925     25745.82    5103195.7    403891.07    1447510.4    1851401.4    2438867.6 
   19800         4.95    26198.844    5212005.8    436818.23    1472980.8      1909799      2423159 
   19900        4.975    26671.452    5327836.7    467843.25    1499552.3    1967395.6    2407450.3 
   20000            5    27100.965    5462394.7     501022.1    1523700.9      2024723    2391741.7 
   20100        5.025    27498.761    5626586.3    534730.08    1546066.2    2080796.2      2376033 
   20200         5.05    27592.089    5821646.1    583900.64    1551313.4      2135214    2360324.4 
   20300        5.075    27502.332    5986311.6    640243.96      1546267    2186510.9    2344615.7 
   20400          5.1    27243.402    6137669.6    703739.52    1531709.1    2235448.6    2328907.1 
   20500        5.125    26776.971    6310638.2     775067.8    1505484.9    2280552.7    2313198.4 
   20600         5.15    26220.009    6493095.7    848984.21    1474170.8      2323155    2297489.8 
   20700        5.175    25533.567    6673349.9    926917.99    1435576.9    2362494.9    2281781.1 
   20800          5.2    24825.904    6847059.5    1003997.9    1395789.8    2399787.7    2266072.5 
   20900        5.225    24072.321    7023055.9    1080670.1      1353421    2434091.1    2250363.8 
   21000         5.25    23263.039    7189462.3    1158720.4    1307920.7    2466641.1    2234655.2 
   21100        5.275    22335.773    7365286.9      1241655    1255786.9    2497441.9    2218946.5 
   21200          5.3    21394.836    7524649.6    1324421.2    1202884.5    2527305.6    2203237.9 
   21300        5.325    20439.416    7691993.1      1406572    1149167.8    2555739.8    2187529.2 
   21400         5.35    19486.364      7866795    1487889.7    1095584.2      2583474    2171820.6 
   21500        5.375    18599.599    8047328.7    1565516.3    1045727.5    2611243.8    2156111.9 
   21600          5.4    17702.159    8222603.9    1643338.8    995270.62    2638609.4    2140403.3 
   21700        5.425      16831.5      8421089    1720678.4    946319.47    2666997.9    2124694.6 
   21800         5.45    15960.446    8613260.9    1799332.8     897346.1    2696678.9      2108986 
