LAMMPS (29 Sep 2021)
  using 1 OpenMP thread(s) per MPI task
Reading restart file ...
  restart file = 29 Sep 2021, LAMMPS = 29 Sep 2021
  restoring atom style atomic from restart
  orthogonal box = (-0.68923309 -0.69174497 0.0000000) to (101.76190 101.76441 615.46600)
  2 by 3 by 16 MPI processor grid
  pair style hybrid/overlay stores no restart info
  436002 atoms
  read_restart CPU = 0.174 seconds
Resetting global fix info from restart file:
  fix style: npt, fix ID: 2

CITE-CITE-CITE-CITE-CITE-CITE-CITE-CITE-CITE-CITE-CITE-CITE-CITE

Your simulation uses code contributions which should be cited:
- @article{cjiang2012
The log file lists these citations in BibTeX format.

CITE-CITE-CITE-CITE-CITE-CITE-CITE-CITE-CITE-CITE-CITE-CITE-CITE

All restart file global fix info was re-assigned
Unused restart file peratom fix info:
  fix style: STORE, fix ID: spatialbins_COMPUTE_STORE
Neighbor list info ...
  update every 1 steps, delay 10 steps, check yes
  max neighbors/atom: 2000, page size: 100000
  master list distance cutoff = 8.28721
  ghost atom cutoff = 8.28721
  binsize = 4.143605, bins = 25 25 149
  3 neighbor lists, perpetual/occasional/extra = 3 0 0
  (1) pair eam/alloy, perpetual, skip from (3)
      attributes: half, newton on
      pair build: skip
      stencil: none
      bin: none
  (2) pair edip/multi, perpetual
      attributes: full, newton on
      pair build: full/bin/atomonly
      stencil: full/bin/3d
      bin: standard
  (3) neighbor class addition, perpetual, half/full from (2)
      attributes: half, newton on
      pair build: halffull/newton
      stencil: none
      bin: none
Setting up Verlet run ...
  Unit style    : metal
  Current step  : 11000055
  Time step     : 0.00025
Per MPI rank memory allocation (min/avg/max) = 4.711 | 11.77 | 17.60 Mbytes
Step Time Temp PotEng E_pair TotEng Press Volume Lx Ly Lz CPULeft 
11000055            0    299.92996   -1876701.1   -1876701.1   -1859797.8   -128.14032    6460392.6    102.45114    102.45616      615.466            0 
11010000      2.48625     300.0822   -1876724.5   -1876724.5   -1859812.6    66.297336    6460375.5    102.43645    102.47058      615.466    25756.772 
11020000      4.98625    299.91099   -1876724.6   -1876724.6   -1859822.4    381.18412    6458756.8    102.43391    102.44744      615.466    25571.705 
11030000      7.48625    300.23456   -1876717.5   -1876717.5     -1859797   -38.342761    6460362.4    102.43742     102.4694      615.466    25327.473 
11040000      9.98625    300.70302   -1876736.4   -1876736.4   -1859789.5    -52.31642    6459460.9    102.43562     102.4569      615.466    25067.231 
11050000     12.48625    299.26468   -1876712.2   -1876712.2   -1859846.4   -112.63589    6459326.6    102.42472    102.46567      615.466    24815.552 
11060000     14.98625     300.1318   -1876731.2   -1876731.2   -1859816.5    65.607904      6458394    102.42735    102.44825      615.466    24552.674 
11070000     17.48625    300.45585   -1876714.2   -1876714.2   -1859781.3    59.633316    6458192.4    102.42113    102.45127      615.466     24294.52 
11080000     19.98625    300.13448   -1876724.8   -1876724.8     -1859810   -349.94678    6458999.9    102.43339    102.45182      615.466    24032.817 
11090000     22.48625    299.97202   -1876718.3   -1876718.3   -1859812.6   -121.65722    6458978.2    102.43147    102.45339      615.466    23771.152 
11100000     24.98625    300.01893   -1876693.9   -1876693.9   -1859785.5    126.36744    6459541.1    102.43681    102.45698      615.466    23509.717 
11110000     27.48625    299.71961   -1876720.2   -1876720.2   -1859828.7   -96.264903    6460168.5      102.443    102.46074      615.466    23247.608 
11120000     29.98625    299.56843   -1876718.7   -1876718.7   -1859835.7    93.093971    6459977.1    102.43639    102.46431      615.466    22988.476 
11130000     32.48625    300.28001   -1876734.2   -1876734.2   -1859811.1   -37.256729    6460199.8    102.44192    102.46231      615.466    22728.276 
11140000     34.98625    300.20357   -1876703.7   -1876703.7   -1859784.9    32.798363    6459524.6    102.43374    102.45979      615.466     22466.94 
11150000     37.48625    300.68015   -1876721.8   -1876721.8   -1859776.2    12.610667    6459358.7    102.43554    102.45536      615.466    22206.713 
11160000     39.98625    299.68104   -1876690.7   -1876690.7   -1859801.4   -85.979822    6458996.7    102.42296     102.4622      615.466    21947.018 
11170000     42.48625    300.19892   -1876714.2   -1876714.2   -1859795.7   -61.578003    6458145.3    102.43026     102.4414      615.466    21684.549 
11180000     44.98625     300.2935   -1876730.7   -1876730.7   -1859806.9   -219.03828    6459002.4     102.4257    102.45955      615.466    21422.378 
11190000     47.48625    300.20864   -1876743.7   -1876743.7   -1859824.7   -33.457824    6457568.6    102.41447    102.44804      615.466    21161.061 
11200000     49.98625    300.24158   -1876720.9   -1876720.9     -1859800   -25.983884    6457952.8    102.42505    102.44355      615.466    20900.586 
11210000     52.48625    299.96848   -1876718.2   -1876718.2   -1859812.7    89.591418    6459104.3    102.43752    102.44935      615.466    20639.951 
11220000     54.98625    299.99213   -1876736.4   -1876736.4   -1859829.6   -70.015779    6459720.3    102.42971    102.46692      615.466    20379.202 
11230000     57.48625    299.97653   -1876736.3   -1876736.3   -1859830.3    59.616576    6460349.6     102.4484    102.45821      615.466    20118.097 
11240000     59.98625    299.92192   -1876693.9   -1876693.9   -1859791.1    24.705953    6460769.9    102.44105    102.47223      615.466    19857.053 
11250000     62.48625    300.00636   -1876710.4   -1876710.4   -1859802.8    19.215385    6460927.2    102.45322    102.46256      615.466    19596.269 
11260000     64.98625    300.09355   -1876736.5   -1876736.5     -1859824    79.791919    6459641.5    102.43445    102.46093      615.466    19336.078 
11270000     67.48625    300.16414   -1876717.1   -1876717.1   -1859800.6   -103.84202    6459293.3    102.43627    102.45359      615.466    19073.648 
11280000     69.98625    299.90148     -1876687     -1876687   -1859785.3   -172.92983    6459499.6    102.43716    102.45597      615.466    18812.167 
11290000     72.48625    299.86345   -1876724.6   -1876724.6     -1859825   -212.16453    6459259.1    102.42764    102.46168      615.466    18551.066 
11300000     74.98625    300.46403   -1876725.6   -1876725.6   -1859792.2   -107.49021    6458024.5     102.4161    102.45364      615.466    18288.994 
11310000     77.48625    300.24608   -1876701.5   -1876701.5   -1859780.4    83.878454    6457582.3     102.4214    102.44133      615.466     18026.88 
11320000     79.98625    300.15004   -1876699.1   -1876699.1   -1859783.3   -57.741553      6458439    102.42286    102.45345      615.466    17765.396 
11330000     82.48625    299.86766   -1876713.6   -1876713.6   -1859813.8   -44.215549    6459097.1    102.43442    102.45233      615.466    17504.958 
11340000     84.98625    299.71005   -1876709.1   -1876709.1   -1859818.1    44.992865    6459296.8    102.43592      102.454      615.466    17244.424 
11350000     87.48625    299.74378   -1876692.5   -1876692.5   -1859799.7   -34.770466    6460683.7     102.4458    102.46611      615.466    16983.803 
11360000     89.98625    300.27572     -1876754     -1876754   -1859831.2    203.42531    6460157.4    102.43952    102.46405      615.466    16722.031 
11370000     92.48625    299.90826   -1876708.1   -1876708.1     -1859806    226.71404      6460103    102.44076    102.46194      615.466    16461.057 
11380000     94.98625    299.86651   -1876739.5   -1876739.5   -1859839.8    194.33839    6459493.9    102.42951    102.46354      615.466     16199.74 
11390000     97.48625    300.16326   -1876722.8   -1876722.8   -1859806.3    285.11896      6458984     102.4341    102.45086      615.466    15938.288 
11400000     99.98625     299.6602   -1876720.7   -1876720.7   -1859832.6    36.840384      6458493    102.42643    102.45073      615.466    15676.831 
11410000    102.48625    300.08158   -1876712.8   -1876712.8   -1859800.9     80.20645    6457659.7    102.41893    102.44502      615.466    15414.775 
11420000    104.98625    300.01363   -1876722.6   -1876722.6   -1859814.6    111.22009    6457265.4    102.41957    102.43812      615.466    15152.796 
11430000    107.48625    299.56243   -1876733.7   -1876733.7   -1859851.1   -249.24117    6457913.3    102.42433    102.44364      615.466    14890.924 
11440000    109.98625    300.15188   -1876706.4   -1876706.4   -1859790.6   -75.171866    6458334.8    102.42431    102.45035      615.466    14628.841 
11450000    112.48625    299.46388   -1876709.5   -1876709.5   -1859832.5    104.14687    6459709.2    102.43919    102.45726      615.466    14367.093 
11460000    114.98625    299.88056   -1876725.1   -1876725.1   -1859824.6    120.19367      6459884     102.4374    102.46183      615.466    14105.792 
11470000    117.48625    299.46751   -1876712.5   -1876712.5   -1859835.3   -72.859066      6460654     102.4391    102.47235      615.466     13844.42 
11480000    119.98625    299.45013   -1876706.9   -1876706.9   -1859830.7    -280.7353    6461360.4    102.44217    102.48047      615.466    13582.818 
11490000    122.48625    299.77888   -1876704.2   -1876704.2   -1859809.4    180.76867    6460085.6    102.44202    102.46041      615.466    13322.138 
11500000    124.98625    299.98332   -1876731.9   -1876731.9   -1859825.5    83.725868    6458875.4    102.43631    102.44692      615.466    13060.854 
11510000    127.48625    300.55421   -1876704.8   -1876704.8   -1859766.3    125.82649    6458515.1    102.42046    102.45706      615.466    12798.908 
11520000    129.98625    300.23782   -1876711.5   -1876711.5   -1859790.9   -147.62463    6459051.4    102.42549    102.46053      615.466    12536.914 
11530000    132.48625    299.91584     -1876691     -1876691   -1859788.5   -77.190938    6458065.1    102.41781    102.45257      615.466    12275.595 
11540000    134.98625    299.94316   -1876742.1   -1876742.1   -1859838.1   -49.805172    6458160.3    102.42295    102.44894      615.466    12014.406 
11550000    137.48625    299.66534   -1876731.6   -1876731.6   -1859843.2    71.697066    6457696.6    102.42284    102.44169      615.466    11752.916 
11560000    139.98625     300.3027     -1876722     -1876722   -1859797.6    17.962454    6458676.2    102.42855    102.45152      615.466    11491.836 
11570000    142.48625     300.0089   -1876710.7   -1876710.7   -1859802.9    -43.19622    6460403.3     102.4404    102.46707      615.466    11230.878 
11580000    144.98625    300.79033   -1876753.3   -1876753.3   -1859801.5    92.280601    6460384.2    102.44763    102.45953      615.466    10969.521 
11590000    147.48625    300.33551   -1876750.5   -1876750.5   -1859824.4   -17.306097    6460773.9     102.4498    102.46354      615.466    10707.992 
11600000    149.98625    300.19246   -1876726.2   -1876726.2   -1859808.1    44.648337    6461125.4    102.44323    102.47568      615.466     10447.04 
11610000    152.48625    300.06457   -1876725.9   -1876725.9   -1859814.9    110.45741    6460240.5    102.43693    102.46795      615.466    10186.161 
11620000    154.98625    300.28637   -1876746.2   -1876746.2   -1859822.8    -151.5558    6460339.5    102.43437    102.47208      615.466      9924.91 
11630000    157.48625    300.07168   -1876707.4   -1876707.4   -1859796.1   -77.174396    6459446.6    102.43739     102.4549      615.466    9663.9104 
11640000    159.98625    299.59656   -1876717.6   -1876717.6     -1859833    148.37909    6457805.9    102.41497     102.4513      615.466    9402.8665 
11650000    162.48625    300.15587   -1876732.6   -1876732.6   -1859816.6    145.41222      6457839    102.41956    102.44723      615.466    9141.6195 
11660000    164.98625    299.88571     -1876713     -1876713   -1859812.1   -7.2764839    6458252.3    102.42602    102.44733      615.466    8880.3197 
11670000    167.48625    300.10509   -1876731.9   -1876731.9   -1859818.7   0.92537635    6458379.5    102.42626     102.4491      615.466    8618.8802 
11680000    169.98625    300.08824   -1876720.6   -1876720.6   -1859808.4   -5.1603725    6458857.9    102.42489    102.45807      615.466    8357.7332 
11690000    172.48625    299.83971     -1876710     -1876710   -1859811.8    79.531232    6460094.6    102.43536    102.46721      615.466    8096.4639 
11700000    174.98625    299.97772   -1876721.6   -1876721.6   -1859815.6     -55.7489    6460245.5    102.44502    102.45994      615.466    7835.2021 
11710000    177.48625    299.86923   -1876721.9   -1876721.9     -1859822   -91.918554    6460209.3    102.43416    102.47023      615.466    7573.9695 
11720000    179.98625     299.8216   -1876727.8   -1876727.8   -1859830.6     263.8676    6459760.1    102.42592    102.47135      615.466    7312.8966 
11730000    182.48625    300.25728     -1876717     -1876717   -1859795.2   -109.84808    6459888.6     102.4433      102.456      615.466     7051.742 
11740000    184.98625    300.41092   -1876731.1   -1876731.1   -1859800.6   -67.550028    6459332.8    102.43525    102.45524      615.466    6790.4836 
11750000    187.48625    300.22157   -1876750.2   -1876750.2   -1859830.5    117.16561    6459184.8    102.42485    102.46329      615.466    6529.2801 
11760000    189.98625    300.53248     -1876747     -1876747   -1859809.7    88.673633    6457695.2     102.4159    102.44861      615.466    6268.0278 
11770000    192.48625    300.18076     -1876736     -1876736   -1859818.5    38.691384    6457655.5    102.41824    102.44564      615.466    6006.7636 
11780000    194.98625    300.24353   -1876730.2   -1876730.2   -1859809.2   -160.08708    6458725.5    102.42848    102.45238      615.466    5745.4536 
11790000    197.48625    300.53895   -1876727.3   -1876727.3   -1859789.6    164.86583    6458878.7    102.42405    102.45924      615.466    5484.2968 
11800000    199.98625    299.83037   -1876731.1   -1876731.1   -1859833.4    23.431372    6459840.6    102.43119    102.46735      615.466    5223.1389 
11810000    202.48625    299.51327   -1876705.2   -1876705.2   -1859825.4   -107.11549    6460201.3     102.4425    102.46176      615.466    4961.9315 
11820000    204.98625    299.95704   -1876706.7   -1876706.7   -1859801.8    54.882723    6461003.1    102.44366    102.47332      615.466    4700.8869 
11830000    207.48625    300.01194   -1876710.2   -1876710.2   -1859802.2   -39.879113    6459793.8    102.43392    102.46388      615.466    4439.7914 
11840000    209.98625    300.08661   -1876719.8   -1876719.8   -1859807.6    40.471951    6461153.3    102.43885    102.48052      615.466    4178.7198 
11850000    212.48625    300.08177   -1876720.2   -1876720.2   -1859808.3   -79.704861    6459969.5    102.42583    102.47476      615.466    3917.5647 
11860000    214.98625    299.74211   -1876726.6   -1876726.6   -1859833.8    21.379345      6458564    102.42447    102.45382      615.466    3656.4619 
11870000    217.48625    300.15032   -1876727.1   -1876727.1   -1859811.3   -53.718575    6459457.9    102.42567    102.46681      615.466    3395.3735 
11880000    219.98625    299.76833   -1876699.3   -1876699.3   -1859805.1    72.807254    6457961.3    102.41675    102.45199      615.466    3134.2887 
11890000    222.48625    300.07884   -1876743.4   -1876743.4   -1859831.7    50.358283    6458124.7    102.42089    102.45044      615.466    2873.1612 
11900000    224.98625    300.25476   -1876696.3   -1876696.3   -1859774.7    164.11525    6458607.5    102.41915    102.45984      615.466     2612.146 
11910000    227.48625    299.84148   -1876716.5   -1876716.5   -1859818.2   -78.011027    6459185.7    102.42921    102.45894      615.466    2351.0385 
11920000    229.98625    299.99245   -1876733.3   -1876733.3   -1859826.5   -147.15918    6458914.2    102.43495     102.4489      615.466    2089.9234 
11930000    232.48625    300.24307   -1876721.6   -1876721.6   -1859800.6    56.031704    6459759.8    102.44043    102.45683      615.466    1828.8532 
11940000    234.98625    300.40512   -1876730.6   -1876730.6   -1859800.5   -27.137059    6460596.2    102.44986    102.46066      615.466    1567.8012 
11950000    237.48625    299.81596     -1876705     -1876705   -1859808.1   -77.776666    6460164.1    102.44331    102.46036      615.466    1306.7546 
11960000    239.98625    299.81258   -1876724.7   -1876724.7     -1859828    199.78093      6459787    102.43708    102.46061      615.466    1045.6696 
11970000    242.48625    299.76307   -1876720.1   -1876720.1   -1859826.2   -12.655834    6460071.5    102.43675    102.46546      615.466    784.61578 
11980000    244.98625    300.18278   -1876697.1   -1876697.1   -1859779.5    79.412139      6459632    102.43973     102.4555      615.466    523.55562 
11990000    247.48625    299.88579   -1876732.4   -1876732.4   -1859831.6   -19.034847    6458643.2     102.4203    102.45925      615.466    262.48784 
12000000    249.98625    300.03684   -1876730.5   -1876730.5   -1859821.2    -70.78248    6458344.6    102.42716    102.44766      615.466    1.4357673 
12000055          250     299.6061   -1876704.2   -1876704.2   -1859819.1   -103.06083    6458101.3    102.42126     102.4497      615.466            0 
Loop time of 26105 on 96 procs for 1000000 steps with 436002 atoms

Performance: 0.827 ns/day, 29.006 hours/ns, 38.307 timesteps/s
100.0% CPU use with 96 MPI tasks x 1 OpenMP threads

MPI task timing breakdown:
Section |  min time  |  avg time  |  max time  |%varavg| %total
---------------------------------------------------------------
Pair    | 2.4811     | 18659      | 24901      |5381.4 | 71.48
Neigh   | 0.01111    | 61.547     | 93.714     | 362.4 |  0.24
Comm    | 1.7887     | 2959.5     | 7710.8     |4729.6 | 11.34
Output  | 1.9252     | 1.9268     | 1.93       |   0.1 |  0.01
Modify  | 562.14     | 4344.2     | 25991      |12446.2 | 16.64
Other   |            | 78.92      |            |       |  0.30

Nlocal:        4541.69 ave        6274 max           0 min
Histogram: 12 0 0 0 0 12 0 24 12 36
Nghost:        8150.06 ave       11090 max           0 min
Histogram: 12 0 0 0 0 12 0 0 51 21
Neighs:         0.00000 ave           0 max           0 min
Histogram: 96 0 0 0 0 0 0 0 0 0
FullNghs:      869240.0 ave 1.33503e+06 max           0 min
Histogram: 12 0 0 12 0 12 12 12 12 24

Total # of neighbors = 83447028
Ave neighs/atom = 191.39139
Neighbor list builds = 2608
Dangerous builds = 0
System init for write_restart ...
System init for write_data ...
Total wall time: 7:15:05
