LAMMPS (29 Sep 2021)
  using 1 OpenMP thread(s) per MPI task
Reading restart file ...
  restart file = 29 Sep 2021, LAMMPS = 29 Sep 2021
  restoring atom style atomic from restart
  orthogonal box = (-0.45499398 -0.42758294 0.0000000) to (101.52766 101.50025 572.57200)
  3 by 2 by 16 MPI processor grid
  pair style hybrid/overlay stores no restart info
  427844 atoms
  read_restart CPU = 0.192 seconds
Resetting global fix info from restart file:
  fix style: npt, fix ID: 2

CITE-CITE-CITE-CITE-CITE-CITE-CITE-CITE-CITE-CITE-CITE-CITE-CITE

Your simulation uses code contributions which should be cited:
- @article{cjiang2012
The log file lists these citations in BibTeX format.

CITE-CITE-CITE-CITE-CITE-CITE-CITE-CITE-CITE-CITE-CITE-CITE-CITE

All restart file global fix info was re-assigned
Unused restart file peratom fix info:
  fix style: STORE, fix ID: spatialbins_COMPUTE_STORE
Neighbor list info ...
  update every 1 steps, delay 10 steps, check yes
  max neighbors/atom: 2000, page size: 100000
  master list distance cutoff = 8.28721
  ghost atom cutoff = 8.28721
  binsize = 4.143605, bins = 25 25 139
  3 neighbor lists, perpetual/occasional/extra = 3 0 0
  (1) pair eam/alloy, perpetual, skip from (3)
      attributes: half, newton on
      pair build: skip
      stencil: none
      bin: none
  (2) pair edip/multi, perpetual
      attributes: full, newton on
      pair build: full/bin/atomonly
      stencil: full/bin/3d
      bin: standard
  (3) neighbor class addition, perpetual, half/full from (2)
      attributes: half, newton on
      pair build: halffull/newton
      stencil: none
      bin: none
Setting up Verlet run ...
  Unit style    : metal
  Current step  : 11000129
  Time step     : 0.0001
Per MPI rank memory allocation (min/avg/max) = 5.113 | 11.42 | 14.50 Mbytes
Step Time Temp PotEng E_pair TotEng Press Volume Lx Ly Lz CPULeft 
11000129            0    300.24365   -1794428.5   -1794428.5   -1777824.1    31.620201    5951812.3    101.98266    101.92783      572.572            0 
11010000       0.9871    300.07555   -1794383.4   -1794383.4   -1777788.3    43.828725      5951697    101.98938    101.91914      572.572    24133.342 
11020000       1.9871    300.05009   -1794440.5   -1794440.5   -1777846.8    71.725028    5951760.4    101.99056    101.91904      572.572    23965.789 
11030000       2.9871     299.9869   -1794443.4   -1794443.4   -1777853.2   -44.939678    5952151.9    101.98801     101.9283      572.572     23714.11 
11040000       3.9871    300.01188   -1794476.5   -1794476.5   -1777884.9   -23.740729    5951927.3    101.98873    101.92373      572.572    23481.112 
11050000       4.9871    299.84746   -1794476.3   -1794476.3   -1777893.8   -53.067278      5951877     101.9856      101.926      572.572    23233.902 
11060000       5.9871    300.05597     -1794410     -1794410     -1777816    141.12867    5952319.2    101.98628    101.93289      572.572    23001.987 
11070000       6.9871    299.87215   -1794447.9   -1794447.9   -1777864.1   -48.545104    5952248.5    101.98763    101.93033      572.572    22760.908 
11080000       7.9871     299.9386   -1794441.5   -1794441.5     -1777854    145.25372    5953106.8    101.99325    101.93941      572.572    22521.619 
11090000       8.9871    300.12795   -1794406.1   -1794406.1   -1777808.1   -1.4396174    5952918.6     101.9974    101.93204      572.572    22284.902 
11100000       9.9871    299.99913   -1794444.4   -1794444.4   -1777853.6    84.307374    5952641.3    101.99473    101.92997      572.572    22052.074 
11110000      10.9871    300.20691   -1794436.3   -1794436.3   -1777833.9   -29.317165    5953242.2    101.99761    101.93738      572.572    21811.491 
11120000      11.9871    299.96332     -1794447     -1794447   -1777858.1    78.517075    5953760.4    102.00243    101.94143      572.572    21569.917 
11130000      12.9871    299.69849   -1794427.2   -1794427.2     -1777853   -95.210465      5954341    102.01209    101.94172      572.572    21321.543 
11140000      13.9871    300.17551   -1794423.7   -1794423.7   -1777823.1    135.77812    5953418.2    102.00189    101.93612      572.572    21081.489 
11150000      14.9871    300.03862   -1794411.1   -1794411.1   -1777818.1    102.42462    5952618.3    101.98693    101.93736      572.572    20841.027 
11160000      15.9871    299.95284   -1794445.8   -1794445.8   -1777857.5    54.850108    5953785.9    102.00408    101.94021      572.572    20593.133 
11170000      16.9871    299.88969   -1794413.9   -1794413.9   -1777829.1   -40.101833    5953457.5    102.00402    101.93465      572.572    20349.801 
11180000      17.9871    300.02271   -1794433.8   -1794433.8   -1777841.6     44.51544    5952707.2    101.98867    101.93715      572.572    20107.835 
11190000      18.9871    300.00133   -1794459.6   -1794459.6   -1777868.6    27.219905    5953030.1    101.99819    101.93316      572.572    19863.268 
11200000      19.9871    300.19724   -1794470.5   -1794470.5   -1777868.6    106.18527    5952302.2    101.98428     101.9346      572.572     19615.15 
11210000      20.9871    300.17693   -1794471.2   -1794471.2   -1777870.5    16.257182    5952983.8    102.00338    101.92719      572.572     19373.25 
11220000      21.9871    300.22916   -1794444.3   -1794444.3   -1777840.7    173.04891    5952861.8    101.98927    101.93919      572.572    19127.972 
11230000      22.9871    299.96221   -1794438.2   -1794438.2   -1777849.4     229.8966    5952517.2    101.99457      101.928      572.572    18881.722 
11240000      23.9871     299.7283   -1794428.7   -1794428.7   -1777852.8   -61.907594    5951513.4    101.98283    101.92254      572.572    18636.202 
11250000      24.9871    299.67654   -1794436.2   -1794436.2   -1777863.1    196.47412    5950849.2    101.97677    101.91723      572.572    18392.662 
11260000      25.9871    299.82735   -1794457.5   -1794457.5   -1777876.2  0.049087318      5951570    101.98705     101.9193      572.572    18148.742 
11270000      26.9871    300.03234   -1794449.6   -1794449.6   -1777856.9    77.669574    5951799.3    101.98656    101.92371      572.572    17904.571 
11280000      27.9871    300.00817   -1794405.8   -1794405.8   -1777814.5   -247.00957    5951362.7    101.98554    101.91725      572.572    17657.751 
11290000      28.9871    299.94972   -1794441.5   -1794441.5   -1777853.4   -78.388053    5951886.1    101.98627    101.92549      572.572    17414.254 
11300000      29.9871    300.19029   -1794461.2   -1794461.2   -1777859.8   -186.45161    5952430.6     101.9922    101.92888      572.572    17168.472 
11310000      30.9871    300.33436   -1794411.7   -1794411.7   -1777802.3   -200.04076    5951829.6     101.9814    101.92939      572.572    16922.693 
11320000      31.9871    300.10979     -1794431     -1794431   -1777834.1   -62.569102    5951502.7    101.99223    101.91297      572.572     16675.92 
11330000      32.9871    300.03336   -1794422.2   -1794422.2   -1777829.4    1.1247778    5951932.7    101.98376    101.92879      572.572    16431.051 
11340000      33.9871    300.02432   -1794476.3   -1794476.3     -1777884   -119.23638      5952083    101.98994    101.92519      572.572    16186.828 
11350000      34.9871    300.22979   -1794424.2   -1794424.2   -1777820.6    99.757462    5952449.7    101.99261     101.9288      572.572    15941.161 
11360000      35.9871    299.89529   -1794475.6   -1794475.6   -1777890.4    133.57394    5952932.5    101.99828     101.9314      572.572    15696.046 
11370000      36.9871    300.08085   -1794460.6   -1794460.6   -1777865.2    111.09364    5952873.4    101.99701    101.93166      572.572    15451.921 
11380000      37.9871     299.7193     -1794410     -1794410   -1777834.6   -117.35654    5953201.2    102.00308    101.93121      572.572    15208.263 
11390000      38.9871     300.1953   -1794430.9   -1794430.9   -1777829.2    -202.9887    5954009.8    102.00587    101.94226      572.572    14961.886 
11400000      39.9871    300.20446   -1794454.7   -1794454.7   -1777852.4   -4.8388597    5953438.8    101.99899    101.93936      572.572    14716.263 
11410000      40.9871    299.96752   -1794441.6   -1794441.6   -1777852.5     12.79426    5954176.9    102.00812    101.94288      572.572    14470.725 
11420000      41.9871    300.22728     -1794460     -1794460   -1777856.5    170.70837    5953862.8    102.00779    101.93783      572.572    14226.443 
11430000      42.9871    299.71892   -1794467.1   -1794467.1   -1777891.8    239.48448    5953809.7    102.00492    101.93979      572.572    13981.442 
11440000      43.9871    299.91793   -1794437.5   -1794437.5   -1777851.1    246.67332    5953363.4    101.99896    101.93811      572.572    13736.276 
11450000      44.9871    299.97663   -1794434.2   -1794434.2   -1777844.6   -10.542765    5954252.7    102.00176    101.95053      572.572     13492.23 
11460000      45.9871    299.76939   -1794454.1   -1794454.1     -1777876    67.491439    5953079.8    102.00648    101.92573      572.572     13247.17 
11470000      46.9871    299.87272   -1794468.1   -1794468.1   -1777884.3   -125.15894    5953729.3    102.00739    101.93595      572.572    13002.198 
11480000      47.9871    299.99843   -1794433.6   -1794433.6   -1777842.7    313.71891    5952060.2    101.99313    101.92161      572.572    12757.232 
11490000      48.9871    299.95274   -1794463.3   -1794463.3     -1777875   -105.81741    5953294.4    102.00043    101.93545      572.572    12512.245 
11500000      49.9871    299.91369   -1794426.4   -1794426.4   -1777840.3   -51.370084    5952900.2    101.99565    101.93348      572.572    12267.648 
11510000      50.9871    300.18412   -1794470.6   -1794470.6   -1777869.5   -17.750329      5952442    102.00326    101.91803      572.572    12021.919 
11520000      51.9871    299.75239   -1794446.5   -1794446.5   -1777869.3   -110.20149    5952510.1    101.99282    101.92963      572.572    11775.821 
11530000      52.9871    299.89307   -1794438.6   -1794438.6   -1777853.6   -95.533498    5951504.4    101.98912    101.91611      572.572    11530.231 
11540000      53.9871    300.26212   -1794434.3   -1794434.3   -1777828.9    41.022096    5951031.7    101.98377    101.91336      572.572    11283.963 
11550000      54.9871    300.06063   -1794418.1   -1794418.1   -1777823.9   -163.50969    5952027.9    101.98703    101.92715      572.572    11037.805 
11560000      55.9871    300.34533   -1794422.1   -1794422.1   -1777812.1   -197.07376    5951908.5    101.98001    101.93213      572.572    10791.579 
11570000      56.9871    299.87435   -1794414.6   -1794414.6   -1777830.7    18.305487    5950737.9     101.9878    101.90429      572.572    10545.516 
11580000      57.9871    299.87977   -1794425.8   -1794425.8   -1777841.5     132.5417    5951335.9    101.97975    101.92259      572.572    10299.995 
11590000      58.9871    299.73003     -1794473     -1794473     -1777897   -189.17385    5951967.1    101.98977    101.92337      572.572    10054.676 
11600000      59.9871    300.31335   -1794454.7   -1794454.7   -1777846.5    84.011298    5951546.8    101.98386    101.92209      572.572    9809.2449 
11610000      60.9871    300.05214   -1794442.3   -1794442.3   -1777848.5    18.435807    5951046.1    101.98395    101.91342      572.572     9564.087 
11620000      61.9871     300.1597   -1794437.1   -1794437.1   -1777837.3    8.5899656    5952356.7    101.99099    101.92883      572.572    9319.1399 
11630000      62.9871    299.70221   -1794493.9   -1794493.9   -1777919.4     143.8695    5952033.1    101.98548    101.92879      572.572    9074.0329 
11640000      63.9871    299.87521   -1794471.9   -1794471.9   -1777887.9   -43.235599      5952941    101.99054    101.93928      572.572    8829.1715 
11650000      64.9871    300.02454   -1794416.9   -1794416.9   -1777824.6   -63.003229    5952922.4    102.00235    101.92716      572.572    8584.0766 
11660000      65.9871    300.00726   -1794415.6   -1794415.6   -1777824.3    169.81151    5953029.9    102.00336    101.92799      572.572    8339.0729 
11670000      66.9871    300.04553   -1794459.2   -1794459.2   -1777865.7    301.51015    5952592.6    101.99666     101.9272      572.572    8093.6811 
11680000      67.9871    300.29448   -1794448.8   -1794448.8   -1777841.6   -62.138542    5953166.2    101.99785    101.93584      572.572    7848.2394 
11690000      68.9871    299.95315   -1794481.2   -1794481.2   -1777892.9    40.950186    5953858.6    102.01045     101.9351      572.572     7603.006 
11700000      69.9871    300.01968   -1794432.4   -1794432.4   -1777840.4    25.806951    5953616.3    102.00163    101.93976      572.572    7357.6929 
11710000      70.9871    299.78085   -1794464.3   -1794464.3   -1777885.5    8.7077175    5953756.8    101.99938    101.94442      572.572    7113.0855 
11720000      71.9871    300.16534   -1794467.7   -1794467.7   -1777867.6    276.84447    5952960.5    101.99576     101.9344      572.572    6867.9365 
11730000      72.9871    300.14291   -1794449.4   -1794449.4   -1777850.6  -0.52437172    5953884.7    102.00451    101.94148      572.572    6623.1863 
11740000      73.9871    299.80973   -1794472.5   -1794472.5   -1777892.1   -134.98081      5953260    102.00078    101.93451      572.572    6378.1852 
11750000      74.9871    300.10126   -1794440.1   -1794440.1   -1777843.6    62.980503    5952803.6    101.99551    101.93196      572.572    6133.2747 
11760000      75.9871    300.01768   -1794437.1   -1794437.1   -1777845.2    8.1799272    5952281.4    101.99072    101.92781      572.572    5888.3518 
11770000      76.9871     300.0882   -1794435.8   -1794435.8     -1777840    193.43584    5952366.7    101.99514    101.92486      572.572    5643.2625 
11780000      77.9871    299.90642   -1794435.7   -1794435.7   -1777849.9    125.68817    5951484.1    101.98703    101.91785      572.572    5398.2151 
11790000      78.9871     299.9011   -1794464.3   -1794464.3   -1777878.9    103.19352    5951514.6    101.98826    101.91714      572.572    5153.0971 
11800000      79.9871     300.1939   -1794449.8   -1794449.8   -1777848.1   -59.774636    5951747.2    101.98075    101.92863      572.572    4907.9325 
11810000      80.9871    300.17617   -1794439.1   -1794439.1   -1777838.4   -188.83534    5952171.9    101.99115     101.9255      572.572    4662.6036 
11820000      81.9871    300.13526   -1794441.9   -1794441.9   -1777843.5   -238.67563    5951959.7    101.99476    101.91827      572.572    4417.2175 
11830000      82.9871    299.89385   -1794430.7   -1794430.7   -1777845.7     72.29161    5951323.9    101.97938    101.92275      572.572    4171.8141 
11840000      83.9871    299.91029   -1794440.8   -1794440.8   -1777854.9    56.728491      5951137    101.97783    101.92109      572.572    3926.1945 
11850000      84.9871    299.82425   -1794448.4   -1794448.4   -1777867.2   -6.9928216    5951363.3    101.97786    101.92494      572.572    3680.7886 
11860000      85.9871    299.97694   -1794454.8   -1794454.8   -1777865.2   -17.029578      5951206     101.9886    101.91152      572.572    3435.4915 
11870000      86.9871    300.10748   -1794461.6   -1794461.6   -1777864.7    -14.86387    5951719.5    101.98674    101.92216      572.572    3190.1122 
11880000      87.9871    299.99273     -1794433     -1794433   -1777842.5   -72.882602    5952135.6    101.99092    101.92511      572.572    2944.9681 
11890000      88.9871     300.0025     -1794454     -1794454   -1777862.9   -60.190526    5951809.5    101.99003    101.92042      572.572    2699.7306 
11900000      89.9871    299.83564     -1794467     -1794467   -1777885.1   -74.922415    5952431.5    101.98839     101.9327      572.572     2454.608 
11910000      90.9871    299.85046   -1794418.9   -1794418.9   -1777836.3    57.625541    5952547.3    101.99413    101.92896      572.572    2209.3973 
11920000      91.9871    299.93689   -1794437.9   -1794437.9   -1777850.5    75.882364    5952563.7    102.00165    101.92172      572.572     1964.276 
11930000      92.9871    299.91313   -1794423.2   -1794423.2   -1777837.1   -11.061126    5953954.9    102.00601    101.94119      572.572    1719.1756 
11940000      93.9871    300.24548   -1794416.5   -1794416.5     -1777812    75.290475    5953390.4    102.00448    101.93305      572.572    1474.0952 
11950000      94.9871    299.85982   -1794438.4   -1794438.4   -1777855.2   -96.701936    5954244.6     102.0096    101.94256      572.572    1229.0008 
11960000      95.9871    299.92859   -1794445.8   -1794445.8   -1777858.9    41.338675    5953689.8    102.00429    101.93836      572.572    983.93003 
11970000      96.9871    299.81195   -1794446.1   -1794446.1   -1777865.6    10.035328    5954367.5    102.01195    101.94232      572.572    738.77284 
11980000      97.9871    299.78887   -1794454.7   -1794454.7   -1777875.4   -15.746654    5953971.5    102.01051    101.93697      572.572    493.58103 
11990000      98.9871    299.93319   -1794418.4   -1794418.4   -1777831.2    212.83417      5953933    102.00814    101.93868      572.572    248.37089 
12000000      99.9871    299.67116     -1794444     -1794444   -1777871.3    238.64369    5953352.2    101.99778    101.93909      572.572     3.163094 
12000129          100    300.08517   -1794434.4   -1794434.4   -1777838.7   -31.063089    5954162.7    102.00669    101.94406      572.572            0 
Loop time of 24520.1 on 96 procs for 1000000 steps with 427844 atoms

Performance: 0.352 ns/day, 68.111 hours/ns, 40.783 timesteps/s
100.0% CPU use with 96 MPI tasks x 1 OpenMP threads

MPI task timing breakdown:
Section |  min time  |  avg time  |  max time  |%varavg| %total
---------------------------------------------------------------
Pair    | 8560.6     | 18624      | 23473      |3050.7 | 75.95
Neigh   | 2.0595     | 23.816     | 34.612     | 194.4 |  0.10
Comm    | 389.55     | 4214.9     | 12683      |5901.3 | 17.19
Output  | 1.9019     | 1.9033     | 1.9186     |   0.1 |  0.01
Modify  | 510.78     | 1582.2     | 3317.8     |2702.6 |  6.45
Other   |            | 73.34      |            |       |  0.30

Nlocal:        4456.71 ave        5972 max         609 min
Histogram: 12 0 0 0 0 0 12 26 22 24
Nghost:        8359.58 ave       10491 max        3086 min
Histogram: 12 0 0 0 0 0 15 21 32 16
Neighs:         0.00000 ave           0 max           0 min
Histogram: 96 0 0 0 0 0 0 0 0 0
FullNghs:      856669.0 ave 1.27086e+06 max       55391 min
Histogram: 12 0 0 0 12 0 24 12 12 24

Total # of neighbors = 82240216
Ave neighs/atom = 192.22010
Neighbor list builds = 1024
Dangerous builds = 0
System init for write_restart ...
System init for write_data ...
Total wall time: 6:48:41
