LAMMPS (29 Sep 2021)
  using 1 OpenMP thread(s) per MPI task
Reading data file ...
  orthogonal box = (0.53774699 0.53333966 0.0000000) to (100.70934 100.71374 665.42400)
  2 by 3 by 16 MPI processor grid
  reading atoms ...
  494500 atoms
  reading velocities ...
  494500 velocities
  read_data CPU = 4.526 seconds
247245 atoms in group g_left
247255 atoms in group g_right

CITE-CITE-CITE-CITE-CITE-CITE-CITE-CITE-CITE-CITE-CITE-CITE-CITE

Your simulation uses code contributions which should be cited:
- @article{cjiang2012
The log file lists these citations in BibTeX format.

CITE-CITE-CITE-CITE-CITE-CITE-CITE-CITE-CITE-CITE-CITE-CITE-CITE

Neighbor list info ...
  update every 1 steps, delay 10 steps, check yes
  max neighbors/atom: 2000, page size: 100000
  master list distance cutoff = 8.28721
  ghost atom cutoff = 8.28721
  binsize = 4.143605, bins = 25 25 161
  3 neighbor lists, perpetual/occasional/extra = 3 0 0
  (1) pair eam/alloy, perpetual, skip from (3)
      attributes: half, newton on
      pair build: skip
      stencil: none
      bin: none
  (2) pair edip/multi, perpetual
      attributes: full, newton on
      pair build: full/bin/atomonly
      stencil: full/bin/3d
      bin: standard
  (3) neighbor class addition, perpetual, half/full from (2)
      attributes: half, newton on
      pair build: halffull/newton
      stencil: none
      bin: none
Setting up Verlet run ...
  Unit style    : metal
  Current step  : 0
  Time step     : 0.00025
Per MPI rank memory allocation (min/avg/max) = 9.771 | 12.40 | 15.65 Mbytes
Step Time Temp Press PotEng KinEng TotEng Volume 
       0            0    6761.3634    66248.055   -2200887.6    432179.67   -1768707.9    6677683.2 
     100        0.025    6760.0151     66473.25   -2200875.1    432093.49   -1768781.6      6667648 
     200         0.05    6759.9498    66218.815   -2200903.5    432089.32   -1768814.2    6657612.8 
     300        0.075    6759.7335    66402.567   -2200886.3    432075.49   -1768810.8    6647577.5 
     400          0.1     6760.259     66831.92   -2200907.1    432109.08     -1768798    6637542.3 
     500        0.125    6759.8449    66814.982   -2200877.5    432082.61   -1768794.8    6627507.1 
     600         0.15    6759.8373    66896.651   -2200876.8    432082.12   -1768794.6    6617471.8 
     700        0.175    6759.9369    66921.159   -2200877.7    432088.49   -1768789.2    6607436.6 
     800          0.2    6761.1299    67115.133   -2200938.3    432164.75   -1768773.6    6597401.4 
     900        0.225    6760.5603    66460.493   -2200882.9    432128.34   -1768754.5    6587366.2 
    1000         0.25    6760.2199    67272.494   -2200861.8    432106.58   -1768755.3    6577330.9 
    1100        0.275     6760.476    67508.882   -2200900.5    432122.95   -1768777.5    6567295.7 
    1200          0.3     6760.314    67509.143   -2200904.9    432112.59   -1768792.3    6557260.5 
    1300        0.325     6760.214    67324.032   -2200889.4     432106.2   -1768783.2    6547225.2 
    1400         0.35    6760.8457    67409.848   -2200911.7    432146.58   -1768765.1      6537190 
    1500        0.375    6760.3547     67743.79   -2200877.8     432115.2   -1768762.6    6527154.8 
    1600          0.4    6760.4697    67704.148   -2200890.8    432122.55   -1768768.3    6517119.5 
    1700        0.425    6760.6181    68069.419   -2200892.4    432132.03   -1768760.4    6507084.3 
    1800         0.45    6760.6824    68114.924     -2200882    432136.14   -1768745.9    6497049.1 
    1900        0.475    6760.7396    68144.163   -2200892.3     432139.8   -1768752.5    6487013.9 
    2000          0.5    6760.2081    68039.698   -2200889.5    432105.82   -1768783.7    6476978.6 
    2100        0.525    6760.1878    68262.796   -2200904.7    432104.53   -1768800.2    6466943.4 
    2200         0.55    6760.1448    68468.038     -2200888    432101.78   -1768786.3    6456908.2 
    2300        0.575    6760.4218    68518.885   -2200894.6    432119.48   -1768775.1    6446872.9 
    2400          0.6    6760.2321    68605.022   -2200902.4    432107.36   -1768795.1    6436837.7 
    2500        0.625    6759.7025    68990.121   -2200894.4    432073.51   -1768820.8    6426802.5 
    2600         0.65    6760.9953    69167.057   -2200968.5    432156.15   -1768812.3    6416767.2 
    2700        0.675      6761.46    70182.578     -2200969    432185.84   -1768783.2      6406732 
    2800          0.7    6740.7854     77109.08   -2199642.7    430864.34   -1768778.3    6396696.8 
    2900        0.725    6668.7497    94651.177     -2195054     426259.9   -1768794.1    6386661.5 
    3000         0.75    6563.4718    115340.98   -2188331.3    419530.64   -1768800.7    6376626.3 
    3100        0.775    6457.6919    134948.77   -2181560.4    412769.29   -1768791.1    6366591.1 
    3200          0.8    6356.2566    151506.51   -2175070.6    406285.64     -1768785    6356555.9 
    3300        0.825    6260.9774     167238.7   -2168973.7    400195.49   -1768778.2    6346520.6 
    3400         0.85    6170.7525    181349.62   -2163177.6    394428.41   -1768749.2    6336485.4 
    3500        0.875    6082.6459    192565.38   -2157504.1    388796.72   -1768707.4    6326450.2 
    3600          0.9    6006.8502     200649.1   -2152634.2    383951.93   -1768682.3    6316414.9 
    3700        0.925    5946.8276    202453.89   -2148806.2    380115.35   -1768690.9    6306379.7 
    3800         0.95    5906.6502    200845.77   -2146249.3    377547.25   -1768702.1    6296344.5 
    3900        0.975    5879.9821    198696.58   -2144534.3    375842.65   -1768691.7    6286309.2 
    4000            1    5864.3683    196471.46   -2143516.1    374844.63   -1768671.5      6276274 
    4100        1.025    5856.3786    190094.75   -2142994.8    374333.94   -1768660.9    6266238.8 
    4200         1.05    5852.0855    186918.79   -2142720.3    374059.53   -1768660.8    6256203.6 
    4300        1.075    5853.0489    183645.86   -2142791.1     374121.1     -1768670    6246168.3 
    4400          1.1    5854.8692    178946.45   -2142926.7    374237.46   -1768689.2    6236133.1 
    4500        1.125    5856.1712    174660.23   -2143018.1    374320.68   -1768697.5    6226097.9 
    4600         1.15    5855.0133    169995.72   -2142933.9    374246.67   -1768687.3    6216062.6 
    4700        1.175    5853.3798    168182.02   -2142810.5    374142.26   -1768668.2    6206027.4 
    4800          1.2    5847.9052    164102.72   -2142447.5    373792.32   -1768655.2    6195992.2 
    4900        1.225    5837.6636    162371.79   -2141798.6    373137.69   -1768660.9    6185956.9 
    5000         1.25    5828.7806    160120.92   -2141235.5     372569.9   -1768665.6    6175921.7 
    5100        1.275    5813.7181    157650.38   -2140256.3    371607.12   -1768649.2    6165886.5 
    5200          1.3    5796.1725    156388.98   -2139120.1    370485.62   -1768634.5    6155851.2 
    5300        1.325    5775.7993    154280.08   -2137823.1    369183.39   -1768639.7      6145816 
    5400         1.35    5753.6564    153897.43   -2136419.5    367768.04   -1768651.4    6135780.8 
    5500        1.375    5731.6805    152832.64   -2135017.9    366363.36   -1768654.5    6125745.6 
    5600          1.4    5709.5923    152747.07   -2133600.9     364951.5   -1768649.4    6115710.3 
    5700        1.425    5684.6771     152981.8   -2132002.9    363358.95   -1768643.9    6105675.1 
    5800         1.45    5659.7366    152543.95   -2130407.2    361764.77   -1768642.5    6095639.9 
    5900        1.475    5638.5406    153001.71   -2129057.5    360409.95   -1768647.6    6085604.6 
    6000          1.5     5613.476    152242.25   -2127470.2    358807.84   -1768662.3    6075569.4 
    6100        1.525    5591.3545    153237.81   -2126067.4    357393.86   -1768673.5    6065534.2 
    6200         1.55    5569.5041    154532.43   -2124661.7     355997.2   -1768664.5    6055498.9 
    6300        1.575    5550.9417    154352.21   -2123457.8    354810.71   -1768647.1    6045463.7 
    6400          1.6    5528.6258    155238.99   -2122033.5     353384.3   -1768649.2    6035428.5 
    6500        1.625    5508.2587    156703.94   -2120762.1    352082.46   -1768679.6    6025393.2 
    6600         1.65     5487.426    156881.01     -2119463    350750.85   -1768712.1      6015358 
    6700        1.675    5472.5889     158446.6     -2118523    349802.48   -1768720.6    6005322.8 
    6800          1.7    5451.1698    160337.58   -2117143.3    348433.39   -1768709.9    5995287.6 
    6900        1.725    5396.6364    163246.77     -2113649    344947.67   -1768701.3    5985252.3 
    7000         1.75     5346.923    166928.95   -2110465.8    341770.04   -1768695.7    5975217.1 
    7100        1.775    5285.9023    170085.33   -2106555.5    337869.66   -1768685.9    5965181.9 
    7200          1.8    5234.1503    174880.91   -2103240.9    334561.72   -1768679.2    5955146.6 
    7300        1.825    5191.9957    179225.22     -2100549    331867.24   -1768681.7    5945111.4 
    7400         1.85    5139.0118    184531.97   -2097168.6    328480.56     -1768688    5935076.2 
    7500        1.875    5102.3588    188976.32   -2094830.4    326137.74   -1768692.7    5925040.9 
    7600          1.9    5062.9083    194541.35   -2092322.7     323616.1   -1768706.6    5915005.7 
    7700        1.925    5022.5414     198953.1   -2089760.3    321035.89   -1768724.4    5904970.5 
    7800         1.95    4989.8598    203319.19   -2087678.3    318946.91   -1768731.4    5894935.3 
    7900        1.975    4956.9164    208851.88   -2085566.3     316841.2   -1768725.1      5884900 
    8000            2    4926.6052    211955.96   -2083633.7    314903.74     -1768730    5874864.8 
    8100        2.025    4895.3015    217303.73   -2081656.3    312902.84   -1768753.5    5864829.6 
    8200         2.05    4870.1528    221019.52   -2080063.9    311295.36   -1768768.6    5854794.3 
    8300        2.075     4842.326    226564.79     -2078273    309516.69   -1768756.3    5844759.1 
    8400          2.1    4817.1085    230942.32   -2076643.7    307904.82   -1768738.9    5834723.9 
    8500        2.125    4793.7568    235739.01   -2075161.4     306412.2   -1768749.2    5824688.6 
    8600         2.15    4762.3823    242107.98   -2073166.5    304406.77   -1768759.7    5814653.4 
    8700        2.175    4729.0107    249795.03     -2071012    302273.69   -1768738.3    5804618.2 
    8800          2.2    4700.5324    257099.37   -2069149.4    300453.39     -1768696    5794582.9 
    8900        2.225    4665.4287    264421.39   -2066882.8     298209.6   -1768673.2    5784547.7 
    9000         2.25    4631.6334    270621.56   -2064730.9    296049.43   -1768681.5    5774512.5 
    9100        2.275    4598.6825    277940.81   -2062631.3    293943.24   -1768688.1    5764477.3 
    9200          2.3    4565.5582    285453.04   -2060504.6    291825.97   -1768678.6      5754442 
    9300        2.325    4544.2369     291333.5   -2059140.5    290463.13   -1768677.3    5744406.8 
    9400         2.35    4554.5235     293525.7   -2059813.6    291120.65     -1768693    5734371.6 
    9500        2.375    4530.4912    296818.74   -2058285.3    289584.52   -1768700.8    5724336.3 
    9600          2.4    4506.5935    301421.11   -2056748.3    288057.01   -1768691.3    5714301.1 
    9700        2.425    4504.3659    304407.48   -2056598.2    287914.62   -1768683.6    5704265.9 
    9800         2.45     4476.919    307577.02   -2054846.7    286160.24   -1768686.5    5694230.6 
    9900        2.475    4440.3798    313359.32     -2052504    283824.69   -1768679.3    5684195.4 
   10000          2.5    4449.0724     315832.8   -2053038.6    284380.32   -1768658.3    5674160.2 
   10100        2.525    4397.7134    320832.77   -2049749.9     281097.5   -1768652.4      5664125 
   10200         2.55    4379.8278    323584.34   -2048624.4    279954.27   -1768670.2    5654089.7 
   10300        2.575    4360.9075    327847.66   -2047430.3     278744.9   -1768685.4    5644054.5 
   10400          2.6    4312.8396    333029.24   -2044350.5    275672.45     -1768678    5634019.3 
   10500        2.625    4302.6089    336908.21   -2043688.3    275018.51   -1768669.8      5623984 
   10600         2.65    4257.3444    339627.85   -2040814.6    272125.25   -1768689.3    5613948.8 
   10700        2.675    4226.7755    342267.81   -2038884.4    270171.31   -1768713.1    5603913.6 
   10800          2.7    4207.1656    346171.27   -2037629.7    268917.87   -1768711.9    5593878.3 
   10900        2.725    4164.6421    347440.55   -2034893.3    266199.81   -1768693.5    5583843.1 
   11000         2.75    4145.6285    347637.82   -2033666.4    264984.48   -1768681.9    5573807.9 
   11100        2.775    4121.4015    348579.05   -2032116.6    263435.92   -1768680.7    5563772.6 
   11200          2.8     4104.114     349845.7   -2031004.9    262330.91     -1768674    5553737.4 
   11300        2.825    4078.4852    351552.56   -2029353.7    260692.75   -1768660.9    5543702.2 
   11400         2.85    4054.1217    351991.84   -2027791.2    259135.46   -1768655.7      5533667 
   11500        2.875    4035.0335    351456.59   -2026571.5    257915.36   -1768656.2    5523631.7 
   11600          2.9    4009.6364    352779.37   -2024947.2       256292   -1768655.2    5513596.5 
   11700        2.925    3993.4236    353393.16   -2023909.8    255255.69   -1768654.1    5503561.3 
   11800         2.95    3972.9603    357068.31   -2022599.8     253947.7   -1768652.1      5493526 
   11900        2.975    3958.6459    357026.24   -2021684.9    253032.74   -1768652.2    5483490.8 
   12000            3    3943.8769    359720.66   -2020742.8    252088.72   -1768654.1    5473455.6 
   12100        3.025    3927.9049    361176.23   -2019725.4     251067.8   -1768657.6    5463420.3 
   12200         3.05    3914.8764    361504.31   -2018899.3    250235.03   -1768664.2    5453385.1 
   12300        3.075     3907.237    364079.12   -2018412.4    249746.73   -1768665.7    5443349.9 
   12400          3.1    3893.3611    367174.44   -2017517.6     248859.8   -1768657.8    5433314.6 
   12500        3.125    3873.8055    370440.76     -2016256    247609.82   -1768646.2    5423279.4 
   12600         3.15    3857.3794    372272.71   -2015200.3    246559.88   -1768640.4    5413244.2 
   12700        3.175    3832.8947    375310.21   -2013636.3    244994.84   -1768641.5      5403209 
   12800          3.2    3811.5933    379743.54   -2012268.4    243633.28   -1768635.1    5393173.7 
   12900        3.225    3792.5256    383034.51   -2011024.4    242414.49   -1768609.9    5383138.5 
   13000         3.25    3764.7739    387592.36     -2009221    240640.63   -1768580.4    5373103.3 
   13100        3.275    3742.1295    388412.02   -2007769.9    239193.23   -1768576.7      5363068 
   13200          3.3    3715.5553    393687.93   -2006077.4    237494.63   -1768582.7    5353032.8 
   13300        3.325    3690.3032    397002.64   -2004459.2    235880.54   -1768578.7    5342997.6 
   13400         3.35    3664.1647    401189.44   -2002787.7    234209.79   -1768577.9    5332962.3 
   13500        3.375    3635.0502    404064.78   -2000933.7    232348.82   -1768584.8    5322927.1 
   13600          3.4    3610.5226     406441.8   -1999373.5    230781.04   -1768592.4    5312891.9 
   13700        3.425    3583.5504    408286.07     -1997646       229057     -1768589    5302856.7 
   13800         3.45    3552.1005    410755.39   -1995618.2    227046.75   -1768571.4    5292821.4 
   13900        3.475    3519.2493    414114.93   -1993499.8    224946.94   -1768552.8    5282786.2 
   14000          3.5    3484.5711    416887.79   -1991268.9    222730.35   -1768538.6      5272751 
   14100        3.525    3451.1086    420417.09   -1989110.6    220591.46   -1768519.1    5262715.7 
   14200         3.55    3415.6515    422794.09   -1986827.2    218325.07   -1768502.1    5252680.5 
   14300        3.575    3378.1545    424713.34   -1984441.6     215928.3   -1768513.3    5242645.3 
   14400          3.6    3340.6032    429387.37   -1982064.2    213528.05   -1768536.1      5232610 
   14500        3.625    3291.9628    432062.53   -1978965.8    210419.01   -1768546.8    5222574.8 
   14600         3.65    3239.2911    438258.74     -1975599    207052.29   -1768546.7    5212539.6 
   14700        3.675    3194.2258    440158.12   -1972720.1    204171.76   -1768548.3    5202504.3 
   14800          3.7    3140.7471    445549.62   -1969305.1    200753.45   -1768551.7    5192469.1 
   14900        3.725     3088.266    451950.88     -1965947    197398.91   -1768548.1    5182433.9 
   15000         3.75    3033.8453    455335.63   -1962464.1    193920.39   -1768543.7    5172398.7 
   15100        3.775     2977.838    460006.49   -1958890.4    190340.46   -1768549.9    5162363.4 
   15200          3.8    2930.4894    463224.55     -1955882    187313.99     -1768568    5152328.2 
   15300        3.825    2879.6984    468943.31   -1952640.4    184067.47   -1768572.9      5142293 
   15400         3.85     2842.039    471990.87   -1950210.8    181660.33   -1768550.5    5132257.7 
   15500        3.875    2803.9108    474200.44   -1947753.5    179223.21   -1768530.3    5122222.5 
   15600          3.9      2761.64    478605.78   -1945052.3     176521.3     -1768531    5112187.3 
   15700        3.925    2729.9631    481620.54   -1943036.9    174496.54   -1768540.4      5102152 
   15800         3.95    2691.1643    484313.21   -1940559.7    172016.56   -1768543.1    5092116.8 
   15900        3.975    2651.1473    488275.97   -1937997.9    169458.72   -1768539.2    5082081.6 
   16000            4    2616.8005    492705.44     -1935805     167263.3   -1768541.7    5072046.3 
   16100        4.025     2574.493    496000.04   -1933103.2    164559.05   -1768544.1    5062011.1 
   16200         4.05    2534.3302    502392.37   -1930527.4    161991.88   -1768535.5    5051975.9 
   16300        4.075    2497.4531    505643.87   -1928154.8    159634.73   -1768520.1    5041940.7 
   16400          4.1    2462.3236    509926.65   -1925898.3    157389.29     -1768509    5031905.4 
   16500        4.125    2427.7826    514910.58   -1923689.5    155181.47     -1768508    5021870.2 
   16600         4.15    2400.2302    517264.95   -1921922.9    153420.35   -1768502.5      5011835 
   16700        4.175    2380.0955    521573.82   -1920627.4    152133.35   -1768494.1    5001799.7 
   16800          4.2    2355.9853    524924.15   -1919082.9    150592.25   -1768490.7    4991764.5 
   16900        4.225    2348.5467    527104.17   -1918611.9    150116.78   -1768495.1    4981729.3 
   17000         4.25    2332.1128    529399.99   -1917569.8    149066.35   -1768503.5      4971694 
   17100        4.275    2321.8013    532624.03   -1916911.8    148407.25   -1768504.6    4961658.8 
   17200          4.3    2307.3923    537342.36   -1915982.8    147486.24   -1768496.6    4951623.6 
   17300        4.325    2298.8222       538626   -1915426.3    146938.45   -1768487.8    4941588.4 
   17400         4.35    2290.1878    541875.35   -1914869.4    146386.54   -1768482.9    4931553.1 
   17500        4.375     2288.091    545409.75   -1914734.6    146252.51   -1768482.1    4921517.9 
   17600          4.4    2282.5717    550218.27   -1914390.1    145899.73   -1768490.3    4911482.7 
   17700        4.425    2281.3562    552668.88     -1914317    145822.03     -1768495    4901447.4 
   17800         4.45    2281.2395    556209.63   -1914292.8    145814.58   -1768478.3    4891412.2 
   17900        4.475    2276.9924    559238.82   -1913990.3     145543.1   -1768447.2      4881377 
   18000          4.5    2276.2541    563146.68     -1913925    145495.91     -1768429    4871341.7 
   18100        4.525    2272.4814    566225.92   -1913691.4    145254.77   -1768436.6    4861306.5 
   18200         4.55    2273.0544    571963.31   -1913728.8    145291.39   -1768437.4    4851271.3 
   18300        4.575    2273.4285    575291.71     -1913729     145315.3   -1768413.7      4841236 
   18400          4.6    2269.3214    579823.18   -1913442.9    145052.78   -1768390.1    4831200.8 
   18500        4.625    2266.1688     582189.2     -1913239    144851.27   -1768387.8    4821165.6 
   18600         4.65    2261.5798    586280.56   -1912943.9    144557.95   -1768385.9    4811130.4 
   18700        4.675    2260.1055    589133.85   -1912825.4    144463.71   -1768361.7    4801095.1 
   18800          4.7    2255.6917    592845.07   -1912528.2    144181.58   -1768346.6    4791059.9 
   18900        4.725    2248.3154    597717.86     -1912072     143710.1   -1768361.9    4781024.7 
   19000         4.75    2238.3592    601123.27   -1911452.6    143073.71   -1768378.9    4770989.4 
   19100        4.775    2223.8684    605713.84   -1910513.5    142147.47     -1768366    4760954.2 
   19200          4.8    2212.9963    608569.96   -1909784.4    141452.54   -1768331.8      4750919 
   19300        4.825    2189.8176    614820.26   -1908287.9    139970.98     -1768317    4740883.7 
   19400         4.85    2163.3953    620003.78   -1906609.9    138282.09   -1768327.8    4730848.5 
   19500        4.875    2129.6071    624611.79   -1904450.5    136122.38   -1768328.1    4720813.3 
   19600          4.9    2092.8252    631872.61   -1902060.7    133771.32   -1768289.4    4710778.1 
   19700        4.925    2053.2594    635500.36   -1899448.1    131242.32   -1768205.8    4700742.8 
   19800         4.95    2004.1222    641416.97   -1896133.2    128101.51   -1768031.7    4690707.6 
   19900        4.975    1951.0647    650624.98   -1892361.2    124710.13     -1767651    4680672.4 
   20000            5    1907.7427       659054   -1888813.6    121941.03   -1766872.6    4670637.1 
   20100        5.025    1866.6769     665660.9   -1884777.3    119316.14   -1765461.1    4660601.9 
   20200         5.05     1840.203    676695.93   -1880903.7    117623.96   -1763279.7    4650566.7 
   20300        5.075    1815.5148    684105.18   -1876473.9    116045.91     -1760428    4640531.4 
   20400          5.1    1797.5599    692607.74   -1872015.5    114898.25   -1757117.2    4630496.2 
   20500        5.125     1771.885    703100.67   -1866373.3    113257.14   -1753116.1      4620461 
   20600         5.15    1747.8817    717950.95     -1858977    111722.87   -1747254.1    4610425.7 
   20700        5.175     1756.431    730432.12   -1849543.2    112269.33   -1737273.9    4600390.5 
   20800          5.2    1829.7605    749240.86   -1838453.5    116956.49     -1721497    4590355.3 
   20900        5.225     1951.211    766677.79   -1826804.4    124719.48   -1702084.9    4580320.1 
   21000         5.25     2064.892    787334.04   -1814962.5    131985.86   -1682976.7    4570284.8 
   21100        5.275    2149.0478    800914.38     -1803387    137365.01     -1666022    4560249.6 
   21200          5.3    2246.9533    816399.06   -1793079.4    143623.04   -1649456.4    4550214.4 
   21300        5.325    2400.2653     828530.8   -1784354.7    153422.59   -1630932.2    4540179.1 
   21400         5.35    2593.0465    840318.57     -1777081    165744.97     -1611336    4530143.9 
   21500        5.375    2765.1551    848352.67     -1770023    176745.98     -1593277    4520108.7 
   21600          5.4    2902.4198    853103.98   -1762579.5    185519.81   -1577059.7    4510073.4 
   21700        5.425    3026.9805    862261.59   -1754951.7     193481.6   -1561470.1    4500038.2 
   21800         5.45    3126.6976    868009.73   -1747063.4    199855.42     -1547208      4490003 
   21900        5.475    3170.8371    871568.33   -1738692.6    202676.77   -1536015.8    4479967.7 
   22000          5.5    3160.7028    877576.11   -1730014.4       202029   -1527985.4    4469932.5 
   22100        5.525    3130.9687    878451.03   -1720818.4    200128.43   -1520689.9    4459897.3 
   22200         5.55    3109.7422    883178.06   -1711902.7    198771.65   -1513131.1    4449862.1 
   22300        5.575    3082.1161    889247.39   -1703086.4    197005.82   -1506080.6    4439826.8 
   22400          5.6    3040.1499    892475.22   -1694022.3    194323.38     -1499699    4429791.6 
   22500        5.625    3030.9434    897097.18   -1686367.4    193734.91   -1492632.5    4419756.4 
   22600         5.65    3040.0032    904325.86   -1678495.7       194314   -1484181.7    4409721.1 
   22700        5.675    3049.6803    908283.64   -1670747.5    194932.55   -1475814.9    4399685.9 
   22800          5.7    3037.6703    915109.55   -1662695.1    194164.89   -1468530.2    4389650.7 
   22900        5.725    3024.2938    926025.05   -1654634.6    193309.87   -1461324.7    4379615.4 
   23000         5.75    3022.2837    939522.19   -1645788.5    193181.39   -1452607.1    4369580.2 
   23100        5.775    3045.8608    952817.81   -1637407.3    194688.42   -1442718.9      4359545 
   23200          5.8    3079.4239    963714.75   -1629840.3    196833.73   -1433006.6    4349509.8 
   23300        5.825    3134.9022    974456.75   -1623376.6    200379.85   -1422996.7    4339474.5 
   23400         5.85    3211.8069    984464.45   -1616761.9    205295.52   -1411466.4    4329439.3 
   23500        5.875    3318.4347    995167.37   -1611214.5    212111.07   -1399103.4    4319404.1 
   23600          5.9    3419.6629    1007355.3     -1605912    218581.48   -1387330.5    4309368.8 
   23700        5.925     3517.997      1018918   -1600615.6    224866.89   -1375748.7    4299333.6 
   23800         5.95    3619.8922    1030787.8   -1595164.8    231379.94   -1363784.9    4289298.4 
   23900        5.975    3707.0812    1040058.1   -1589011.2    236952.97   -1352058.2    4279263.1 
   24000            6    3782.1228    1051680.6   -1582468.4    241749.55   -1340718.8    4269227.9 
   24100        6.025    3873.4514    1061018.8   -1576457.3    247587.19   -1328870.1    4259192.7 
   24200         6.05    3982.0676    1071140.8   -1570443.7    254529.83   -1315913.8    4249157.4 
   24300        6.075    4095.6135      1078333   -1564398.9    261787.57   -1302611.4    4239122.2 
   24400          6.1    4207.8973    1084726.3   -1558078.4    268964.64   -1289113.7      4229087 
   24500        6.125    4334.6959    1096354.7   -1551407.9    277069.48   -1274338.4    4219051.8 
   24600         6.15    4476.9976    1104541.2   -1544387.9    286165.26   -1258222.6    4209016.5 
   24700        6.175    4621.1441    1111796.1   -1537294.7    295378.97   -1241915.8    4198981.3 
   24800          6.2      4759.96    1122949.7   -1530000.6    304251.94   -1225748.6    4188946.1 
   24900        6.225    4906.3992    1133630.7   -1522690.1    313612.19   -1209077.9    4178910.8 
   25000         6.25    5051.2895    1144971.7   -1515335.4    322873.44   -1192461.9    4168875.6 
   25100        6.275    5182.0879    1155478.3   -1508116.5    331233.94   -1176882.6    4158840.4 
   25200          6.3    5302.3267    1162316.8   -1500957.3    338919.49   -1162037.8    4148805.1 
   25300        6.325    5429.8948    1175594.7   -1494213.5    347073.51     -1147140    4138769.9 
   25400         6.35    5545.3625    1184631.3   -1486999.7    354454.09   -1132545.6    4128734.7 
   25500        6.375    5640.4836    1195602.8   -1479813.7    360534.14   -1119279.5    4118699.5 
   25600          6.4    5709.6278    1205757.9     -1472024    364953.77   -1107070.2    4108664.2 
   25700        6.425    5774.0336      1219033   -1464313.4    369070.52   -1095242.9      4098629 
   25800         6.45    5819.6344    1229127.6     -1456050    371985.29   -1084064.7    4088593.8 
   25900        6.475    5847.4304    1240625.6   -1447639.8    373761.98   -1073877.8    4078558.5 
   26000          6.5    5856.8585    1257627.9   -1438518.9    374364.61   -1064154.3    4068523.3 
   26100        6.525    5866.8418    1268282.4   -1429381.6    375002.73   -1054378.9    4058488.1 
   26200         6.55    5869.2639      1282975   -1419807.2    375157.55   -1044649.6    4048452.8 
   26300        6.575    5866.0938    1294403.4   -1410104.9    374954.92   -1035149.9    4038417.6 
   26400          6.6    5857.4074    1308990.3   -1399937.8     374399.7   -1025538.1    4028382.4 
   26500        6.625    5856.9048      1320451     -1389930    374367.57   -1015562.5    4018347.1 
   26600         6.65    5849.4622    1333757.1   -1379321.2    373891.85   -1005429.3    4008311.9 
   26700        6.675    5850.1646    1343995.9   -1369306.5    373936.74   -995369.76    3998276.7 
   26800          6.7    5850.0701      1358047   -1359203.3     373930.7   -985272.62    3988241.5 
   26900        6.725    5840.9533    1370604.6   -1348444.3    373347.97   -975096.37    3978206.2 
   27000         6.75    5834.8081    1381672.5   -1338014.4    372955.17   -965059.26      3968171 
   27100        6.775    5815.6546    1392946.1   -1327055.1     371730.9   -955324.18    3958135.8 
   27200          6.8    5797.4649    1403316.9   -1316361.8    370568.23   -945793.57    3948100.5 
   27300        6.825    5770.0233    1417880.6     -1305290    368814.19   -936475.76    3938065.3 
   27400         6.85    5746.3463    1429656.5   -1294895.8    367300.78   -927595.06    3928030.1 
   27500        6.875    5727.3285    1442548.8   -1285020.9    366085.18   -918935.75    3917994.8 
   27600          6.9    5713.6868    1455458.7   -1275405.5    365213.22    -910192.3    3907959.6 
   27700        6.925    5714.3884    1471541.8   -1266581.4    365258.06    -901323.3    3897924.4 
   27800         6.95    5726.9101      1485337   -1258597.9    366058.44   -892539.45    3887889.1 
   27900        6.975    5755.1429    1499364.2   -1251513.7    367863.05   -883650.67    3877853.9 
   28000            7    5804.8208    1511090.7   -1245150.8    371038.41   -874112.34    3867818.7 
   28100        7.025    5870.3274    1528421.4   -1239146.1    375225.53   -863920.56    3857783.5 
   28200         7.05    5937.7328    1547812.1   -1233014.2    379534.02   -853480.18    3847748.2 
   28300        7.075    6011.7512    1566338.6   -1227190.4     384265.2   -842925.22      3837713 
   28400          7.1    6087.7288    1586502.7   -1221232.3    389121.61   -832110.71    3827677.8 
   28500        7.125    6183.5118    1606558.1   -1216364.8    395243.97   -821120.78    3817642.5 
   28600         7.15    6277.4196    1624927.2   -1211346.2    401246.46   -810099.78    3807607.3 
   28700        7.175    6375.6769    1641574.4   -1206631.2    407526.97   -799104.22    3797572.1 
   28800          7.2    6486.8286    1655827.6   -1202639.3    414631.68    -788007.6    3787536.8 
   28900        7.225    6596.3489    1668377.8   -1198775.8    421632.11   -777143.65    3777501.6 
   29000         7.25    6692.1774      1679317   -1194388.9    427757.37   -766631.51    3767466.4 
   29100        7.275    6783.4161      1694850   -1190083.7    433589.26   -756494.46    3757431.2 
   29200          7.3     6864.012    1705084.8   -1185254.5    438740.87   -746513.63    3747395.9 
   29300        7.325    6937.0669    1713902.7   -1180146.8    443410.46   -736736.33    3737360.7 
   29400         7.35    6989.6852      1728841   -1174056.9    446773.77    -727283.1    3727325.5 
   29500        7.375    7040.9467    1741903.9   -1167991.6    450050.36   -717941.22    3717290.2 
   29600          7.4    7086.6439    1756722.2     -1161251    452971.28   -708279.69      3707255 
   29700        7.425    7126.7545    1773549.8   -1153681.7    455535.11    -698146.6    3697219.8 
   29800         7.45    7171.2737    1793950.7   -1145801.4    458380.73   -687420.71    3687184.5 
   29900        7.475    7216.9875    1807247.4   -1137079.7    461302.71   -675777.01    3677149.3 
   30000          7.5    7268.5112    1832369.9   -1127733.8    464596.06   -663137.74    3667114.1 
   30100        7.525    7314.9237    1857040.4   -1117554.1     467562.7   -649991.35    3657078.8 
   30200         7.55    7347.0725    1879230.3   -1106083.9    469617.62   -636466.29    3647043.6 
   30300        7.575    7374.4807      1904558   -1093766.4    471369.52   -622396.85    3637008.4 
   30400          7.6    7397.3901    1935648.4   -1080434.1    472833.87    -607600.2    3626973.2 
   30500        7.625    7408.5877    1968056.6   -1065878.7    473549.61   -592329.07    3616937.9 
   30600         7.65    7417.0453    2000526.6   -1050911.2    474090.21   -576820.94    3606902.7 
   30700        7.675    7423.7449    2030424.3   -1035398.4    474518.44   -560879.95    3596867.5 
   30800          7.7    7441.0843    2065295.7   -1020059.6    475626.76   -544432.84    3586832.2 
   30900        7.725    7453.2642      2094957   -1004380.2    476405.29   -527974.91      3576797 
   31000         7.75    7463.7806    2130183.4   -988842.54    477077.49   -511765.05    3566761.8 
   31100        7.775    7463.6045      2157764   -972821.31    477066.23   -495755.08    3556726.5 
   31200          7.8    7462.7266    2183885.9   -956820.81    477010.11    -479810.7    3546691.3 
   31300        7.825    7456.8507    2215043.9   -940849.49    476634.53   -464214.96    3536656.1 
   31400         7.85    7434.2454    2242517.1   -924210.93    475189.63    -449021.3    3526620.8 
   31500        7.875    7412.1518    2272244.2   -907812.06    473777.42   -434034.63    3516585.6 
   31600          7.9    7389.5188    2299583.5   -891581.98    472330.75   -419251.24    3506550.4 
   31700        7.925     7351.452    2327581.5   -874751.21    469897.55   -404853.65    3496515.2 
   31800         7.95    7321.6934      2352948   -858862.81    467995.41    -390867.4    3486479.9 
   31900        7.975    7293.9491    2378313.8   -843238.68    466222.03   -377016.65    3476444.7 
   32000            8    7276.9389    2403118.4   -828324.56    465134.75   -363189.81    3466409.5 
   32100        8.025    7258.7763    2424965.2   -813552.14    463973.81   -349578.32    3456374.2 
   32200         8.05    7248.3272    2451382.9   -799358.58    463305.91   -336052.67      3446339 
   32300        8.075    7241.2054    2472007.6   -785299.34     462850.7   -322448.64    3436303.8 
   32400          8.1    7250.0186      2491124   -772172.07    463414.03   -308758.04    3426268.5 
   32500        8.125    7256.5582    2521107.1   -759018.85    463832.03   -295186.81    3416233.3 
   32600         8.15    7266.6112      2538928   -746164.99    464474.61   -281690.38    3406198.1 
   32700        8.175    7287.7909    2559092.3   -733926.77     465828.4   -268098.37    3396162.9 
   32800          8.2    7296.0167    2580209.8    -720708.5    466354.18   -254354.32    3386127.6 
   32900        8.225    7329.9151      2601969   -709099.92    468520.94   -240578.98    3376092.4 
   33000         8.25    7347.6513    2620327.8   -696500.59    469654.62   -226845.97    3366057.2 
   33100        8.275    7364.5294      2642998   -683832.09    470733.45   -213098.64    3356021.9 
   33200          8.3     7381.158    2660476.2   -671194.36    471796.33   -199398.03    3345986.7 
   33300        8.325    7366.5071    2682841.3   -656694.25    470859.86   -185834.39    3335951.5 
   33400         8.35    7361.5901    2701000.4   -643090.02    470545.57   -172544.45    3325916.2 
   33500        8.375    7326.9338    2729365.1   -627814.45    468330.38   -159484.08      3315881 
   33600          8.4    7276.8262    2750474.7   -611849.21    465127.55   -146721.66    3305845.8 
   33700        8.425    7210.2947    2776591.3   -595321.62    460874.91   -134446.71    3295810.5 
   33800         8.45    7105.6745      2799734   -576816.88    454187.69   -122629.19    3285775.3 
   33900        8.475    6999.2694    2824919.3   -558609.23    447386.39   -111222.84    3275740.1 
   34000          8.5    6871.4214    2843586.1   -539399.83    439214.47   -100185.36    3265704.9 
   34100        8.525    6727.0134    2870713.1    -519544.8    429984.05   -89560.744    3255669.6 
   34200         8.55    6544.8773    2896504.3   -497828.34    418342.09   -79486.247    3245634.4 
   34300        8.575    6352.9885    2921361.8   -475944.58    406076.75   -69867.831    3235599.2 
   34400          8.6    6172.7856    2950514.7   -455096.94    394558.36   -60538.579    3225563.9 
   34500        8.625    5961.7855    2973498.7   -432501.09    381071.44   -51429.647    3215528.7 
   34600         8.65    5757.9487    3005116.6   -410630.92    368042.39   -42588.521    3205493.5 
   34700        8.675     5560.702    3029673.5   -389411.02    355434.58   -33976.445    3195458.2 
   34800          8.7    5376.1026    3049695.7   -369156.87    343635.17   -25521.703      3185423 
   34900        8.725    5188.4063    3072508.2   -348683.63    331637.81   -17045.828    3175387.8 
   35000         8.75     5034.424    3101404.9   -330393.73    321795.41   -8598.3233    3165352.6 
   35100        8.775    4888.8751    3123024.4   -312691.36    312492.07   -199.29343    3155317.3 
   35200          8.8    4769.8034    3139189.2   -296710.72    304881.12    8170.4059    3145282.1 
   35300        8.825    4670.4676    3159875.9   -281831.04    298531.68    16700.636    3135246.9 
   35400         8.85    4581.5706    3179863.1   -267381.61    292849.47    25467.856    3125211.6 
   35500        8.875     4528.374    3202014.5   -255214.72    289449.19    34234.473    3115176.4 
   35600          8.9    4477.4986    3225108.1   -243224.95    286197.29    42972.336    3105141.2 
   35700        8.925    4453.8874    3252004.4   -232891.99    284688.08    51796.091    3095105.9 
   35800         8.95    4437.4191    3280077.8   -222831.29    283635.45    60804.159    3085070.7 
   35900        8.975    4425.8694    3315708.6   -212875.39     282897.2    70021.817    3075035.5 
   36000            9     4417.867    3350070.2   -202702.68    282385.69    79683.012    3065000.2 
   36100        9.025    4425.6077    3381810.5   -192745.77    282880.48     90134.71      3054965 
   36200         9.05    4449.9914    3419236.6      -182447    284439.05    101992.05    3044929.8 
   36300        9.075    4476.0581    3453651.3    -170083.9    286105.22    116021.31    3034894.6 
   36400          9.1    4515.3514    3497364.6   -156022.44     288616.8    132594.37    3024859.3 
   36500        9.125    4560.2579    3535140.4    -140060.3    291487.18    151426.89    3014824.1 
   36600         9.15    4620.1216    3583079.8    -123549.9    295313.61    171763.71    3004788.9 
   36700        9.175    4651.5902      3623206   -104401.22    297325.05    192923.83    2994753.6 
   36800          9.2    4664.6711    3673787.5   -83004.185    298161.17    215156.99    2984718.4 
   36900        9.225    4696.1977    3714721.2   -61304.516    300176.32     238871.8    2974683.2 
   37000         9.25    4730.0132    3762410.6   -37540.037    302337.77    264797.73    2964647.9 
   37100        9.275     4797.621    3802390.3   -13353.724    306659.19    293305.47    2954612.7 
   37200          9.3    4864.7211    3853715.9    12496.264    310948.17    323444.43    2944577.5 
   37300        9.325    4955.0539    3893538.2    38246.847    316722.15       354969    2934542.2 
   37400         9.35    5052.7374    3945958.6    64601.557    322965.99    387567.54      2924507 
   37500        9.375    5148.2229    3990581.7    91796.141    329069.33    420865.47    2914471.8 
   37600          9.4    5263.1827    4039856.1     119166.5    336417.44    455583.94    2904436.6 
   37700        9.425    5392.2859    4097793.6    145955.71    344669.59    490625.29    2894401.3 
   37800         9.45    5528.8908      4135784    173414.82    353401.24    526816.06    2884366.1 
   37900        9.475     5674.491      4184906    199856.92    362707.86    562564.78    2874330.9 
   38000          9.5     5834.805    4242567.1    225658.42    372954.97     598613.4    2864295.6 
   38100        9.525    5999.8262    4289465.9    251789.84    383502.97    635292.81    2854260.4 
   38200         9.55    6192.1963    4342827.2    276059.66    395799.07    671858.73    2844225.2 
   38300        9.575    6398.6747    4391532.1    300321.08    408996.97    709318.05    2834189.9 
   38400          9.6    6631.2621    4437685.6    323344.26    423863.72    747207.98    2824154.7 
   38500        9.625    6892.5873    4498978.3    345910.15    440567.37    786477.52    2814119.5 
   38600         9.65    7158.3373    4545958.1    368276.54    457553.85    825830.39    2804084.3 
   38700        9.675     7411.455      4591487     392298.3    473732.89    866031.19      2794049 
   38800          9.7    7666.1108      4635332    416257.16    490010.23    906267.38    2784013.8 
   38900        9.725    7896.5053    4691723.1    442226.09    504736.82     946962.9    2773978.6 
   39000         9.75    8110.1344    4743970.8    470044.28    518391.78    988436.07    2763943.3 
   39100        9.775    8288.3334    4803652.3    498918.73    529782.08    1028700.8    2753908.1 
   39200          9.8    8404.7425    4872402.3    531506.67    537222.84    1068729.5    2743872.9 
   39300        9.825    8523.3701    4927688.7    564006.71     544805.4    1108812.1    2733837.6 
   39400         9.85    8562.7535    5000722.3    600499.81    547322.75    1147822.6    2723802.4 
   39500        9.875    8619.0668    5064614.2    635660.12    550922.24    1186582.4    2713767.2 
   39600          9.9    8640.4768    5142865.4    672149.46    552290.75    1224440.2    2703731.9 
   39700        9.925    8637.6903      5207916    709722.99    552112.63    1261835.6    2693696.7 
   39800         9.95    8632.0866    5285462.6    746169.28    551754.45    1297923.7    2683661.5 
   39900        9.975    8644.1511      5352814    780909.68     552525.6    1333435.3    2673626.3 
   40000           10    8636.2388    5425854.3    815868.08    552019.86    1367887.9      2663591 
   40100       10.025    8684.9764    5480587.5     847241.2    555135.11    1402376.3    2653555.8 
   40200        10.05    8735.0442    5548340.5    877301.24     558335.4    1435636.6    2643520.6 
   40300       10.075    8843.6914    5610335.8    903806.74    565280.02    1469086.8    2633485.3 
   40400         10.1    8976.2905      5673775    929811.41    573755.62      1503567    2623450.1 
   40500       10.125    9145.5038    5749331.3     953947.2    584571.57    1538518.8    2613414.9 
   40600        10.15    9379.9409    5830752.5    976291.37    599556.56    1575847.9    2603379.6 
   40700       10.175     9602.176    5934574.2      1001180    613761.61    1614941.6    2593344.4 
   40800         10.2    9908.3142    6035005.7      1023567    633329.66    1656896.7    2583309.2 
   40900       10.225    10193.763    6140643.4    1049485.4    651575.25    1701060.7      2573274 
   41000        10.25    10511.454    6250889.4    1076012.3    671881.74      1747894    2563238.7 
   41100       10.275    10787.941      6387263    1106431.9    689554.53    1795986.4    2553203.5 
   41200         10.3    11034.511    6515621.8    1139390.2    705315.04    1844705.2    2543168.3 
   41300       10.325    11242.946    6654668.2    1175697.3    718638.01    1894335.3      2533133 
   41400        10.35    11379.316    6804983.4    1216092.7    727354.62    1943447.3    2523097.8 
   41500       10.375    11485.388    6945926.2    1258888.8    734134.66    1993023.5    2513062.6 
   41600         10.4    11579.542    7089150.9    1302369.7    740152.86    2042522.5    2503027.3 
   41700       10.425    11630.457    7214509.5    1348180.2    743407.36    2091587.6    2492992.1 
   41800        10.45    11682.168      7318940    1393649.4    746712.66    2140362.1    2482956.9 
   41900       10.475    11767.042    7431193.9    1437681.5    752137.73    2189819.2    2472921.6 
   42000         10.5    11840.747      7536295    1482070.5    756848.86    2238919.3    2462886.4 
   42100       10.525    11928.529    7629650.9    1524913.3    762459.79    2287373.1    2452851.2 
   42200        10.55    12007.495    7715315.5      1568513    767507.21    2336020.3      2442816 
   42300       10.575    12122.148    7810254.6    1609150.6     774835.7    2383986.3    2432780.7 
   42400         10.6    12193.979      7913685    1651893.9    779427.09      2431321    2422745.5 
   42500       10.625    12234.356    7997933.1    1695746.2    782007.98    2477754.2    2412710.3 
   42600        10.65    12246.338    8105410.4    1740092.3    782773.85    2522866.1      2402675 
   42700       10.675    12163.801    8216877.4    1788715.6    777498.14    2566213.7    2392639.8 
   42800         10.7    12024.029    8310820.9    1840285.1    768564.06    2608849.2    2382604.6 
   42900       10.725    11831.185    8431970.1    1894070.8    756237.68    2650308.4    2372569.3 
   43000        10.75    11597.233    8555969.1    1949645.2    741283.66    2690928.9    2362534.1 
   43100       10.775    11317.358    8670608.3    2007228.4    723394.35    2730622.8    2352498.9 
   43200         10.8    11012.526    8796394.3    2065090.3    703909.82    2769000.1    2342463.6 
   43300       10.825    10669.135    8938826.3    2124778.2     681960.6    2806738.8    2332428.4 
   43400        10.85    10340.212    9062700.9    2183061.2    660936.12    2843997.3    2322393.2 
   43500       10.875    10059.636    9187331.8    2237276.4       643002    2880278.4      2312358 
   43600         10.9    9794.2878    9329028.8    2290907.1     626041.2    2916948.3    2302322.7 
   43700       10.925    9634.7733    9453015.6      2338131     615845.2    2953976.2    2292287.5 
   43800        10.95    9495.3751    9578672.6    2384771.3       606935    2991706.3    2282252.3 
   43900       10.975    9396.0703    9697807.5    2429267.9    600587.53    3029855.4      2272217 
   44000           11    9308.1684    9825619.1    2473960.4    594968.93    3068929.3    2262181.8 
   44100       11.025    9213.4179    9951159.9    2520640.7    588912.57    3109553.3    2252146.6 
   44200        11.05    9140.0631     10104234      2570017    584223.81    3154240.8    2242111.3 
   44300       11.075     9147.045     10272978    2623253.5    584670.08    3207923.6    2232076.1 
   44400         11.1    9240.2221     10447084    2683899.4    590625.87    3274525.3    2222040.9 
   44500       11.125    9445.8988     10618394    2748075.9    603772.52    3351848.4    2212005.7 
   44600        11.15    9676.8972     10810093    2813697.6    618537.71    3432235.3    2201970.4 
   44700       11.175    9850.4392     10996344    2882654.9    629630.34    3512285.2    2191935.2 
   44800         11.2    10007.862     11162635    2953435.9    639692.64    3593128.5      2181900 
   44900       11.225    10172.879     11348134    3023073.5    650240.38    3673313.9    2171864.7 
   45000        11.25     10318.62     11511211      3094906    659556.01      3754462    2161829.5 
   45100       11.275      10524.7     11672377    3165028.5    672728.44    3837756.9    2151794.3 
   45200         11.3    10782.354     11829651    3234523.1    689197.39    3923720.5      2141759 
   45300       11.325    11060.508     11988306    3304959.5    706976.76    4011936.3    2131723.8 
   45400        11.35      11380.5     12149772    3376509.6    727430.34      4103940    2121688.6 
   45500       11.375    11707.263     12315201      3452030    748316.66    4200346.6    2111653.3 
   45600         11.4    11962.064     12480746    3532003.1    764603.33    4296606.4    2101618.1 
   45700       11.425    12127.469     12677475    3616995.1    775175.84      4392171    2091582.9 
   45800        11.45    12226.551     12887413    3704094.7     781509.1    4485603.8    2081547.7 
   45900       11.475    12213.259     13090051    3795883.7    780659.46    4576543.2    2071512.4 
   46000         11.5    12221.356     13297619    3885045.5    781176.98    4666222.5    2061477.2 
   46100       11.525    12254.636     13506611    3972558.9    783304.26    4755863.1      2051442 
   46200        11.55    12395.912     13711586    4053195.5    792334.43      4845530    2041406.7 
   46300       11.575    12609.841     13937373    4129585.5    806008.58    4935594.1    2031371.5 
   46400         11.6    12897.735     14184491      4202630    824410.47    5027040.5    2021336.3 
   46500       11.625    13308.804     14471109    4270802.8    850685.62    5121488.4      2011301 
   46600        11.65    13759.151     14792904    4341562.7    879471.38      5221034    2001265.8 
   46700       11.675    14221.017     15110732    4415271.3    908993.35    5324264.6    1991230.6 
   46800         11.7    14634.257     15463204    4498212.5    935407.26    5433619.8    1981195.3 
