LAMMPS (29 Sep 2021)
  using 1 OpenMP thread(s) per MPI task
Reading data file ...
  orthogonal box = (-0.29750865 -0.29818520 0.0000000) to (101.94057 101.94125 531.07200)
  2 by 2 by 6 MPI processor grid
  reading atoms ...
  425652 atoms
  reading velocities ...
  425652 velocities
  read_data CPU = 4.347 seconds
212826 atoms in group g_left
212826 atoms in group g_right

CITE-CITE-CITE-CITE-CITE-CITE-CITE-CITE-CITE-CITE-CITE-CITE-CITE

Your simulation uses code contributions which should be cited:
- GPU package (short-range, long-range and three-body potentials):
The log file lists these citations in BibTeX format.

CITE-CITE-CITE-CITE-CITE-CITE-CITE-CITE-CITE-CITE-CITE-CITE-CITE


--------------------------------------------------------------------------
- Using acceleration for eam/alloy:
-  with 12 proc(s) per device.
-  Horizontal vector operations: ENABLED
-  Shared memory system: No
--------------------------------------------------------------------------
Device 0: Tesla V100-SXM2-32GB, 80 CUs, 28/32 GB, 1.5 GHZ (Mixed Precision)
Device 1: Tesla V100-SXM2-32GB, 80 CUs, 1.5 GHZ (Mixed Precision)
--------------------------------------------------------------------------

Initializing Device and compiling on process 0...Done.
Initializing Devices 0-1 on core 0...Done.
Initializing Devices 0-1 on core 1...Done.
Initializing Devices 0-1 on core 2...Done.
Initializing Devices 0-1 on core 3...Done.
Initializing Devices 0-1 on core 4...Done.
Initializing Devices 0-1 on core 5...Done.
Initializing Devices 0-1 on core 6...Done.
Initializing Devices 0-1 on core 7...Done.
Initializing Devices 0-1 on core 8...Done.
Initializing Devices 0-1 on core 9...Done.
Initializing Devices 0-1 on core 10...Done.
Initializing Devices 0-1 on core 11...Done.

Setting up Verlet run ...
  Unit style    : metal
  Current step  : 0
  Time step     : 0.00025
Per MPI rank memory allocation (min/avg/max) = 8.303 | 10.19 | 11.14 Mbytes
Step Time Temp Press PotEng KinEng TotEng Volume 
       0            0     4903.638    48668.531   -1767444.2    269796.74   -1497647.4    5551170.1 
     100        0.025    4902.6094    48705.222   -1767429.9    269740.15   -1497689.7    5543330.5 
     200         0.05    4902.8817    48764.606   -1767443.3    269755.13   -1497688.2      5535491 
     300        0.075    4903.0486     48842.88   -1767434.3    269764.31     -1497670    5527651.4 
     400          0.1    4902.5578    48926.373   -1767408.7    269737.31   -1497671.4    5519811.8 
     500        0.125    4902.5188    48990.556   -1767428.1    269735.16   -1497692.9    5511972.2 
     600         0.15    4902.7128    49079.633   -1767447.9    269745.84   -1497702.1    5504132.7 
     700        0.175    4902.9878    49168.827   -1767452.9    269760.97   -1497691.9    5496293.1 
     800          0.2     4902.396    49247.825   -1767414.3     269728.4   -1497685.9    5488453.5 
     900        0.225    4902.6684    49293.365   -1767433.9    269743.39   -1497690.5    5480613.9 
    1000         0.25     4902.583    49352.278     -1767431     269738.7   -1497692.3    5472774.4 
    1100        0.275    4902.6114    49430.309   -1767427.4    269740.26   -1497687.1    5464934.8 
    1200          0.3    4902.5463    49539.195   -1767424.3    269736.68   -1497687.6    5457095.2 
    1300        0.325    4902.7585    49625.308   -1767448.6    269748.35   -1497700.2    5449255.7 
    1400         0.35     4902.549    49704.648   -1767450.8    269736.82     -1497714    5441416.1 
    1500        0.375    4901.8357    49784.355   -1767413.4    269697.58   -1497715.8    5433576.5 
    1600          0.4    4902.3577    49850.289   -1767435.1     269726.3   -1497708.8    5425736.9 
    1700        0.425    4902.4012    49923.284     -1767429    269728.69   -1497700.3    5417897.4 
    1800         0.45    4902.3453    50002.563     -1767422    269725.62   -1497696.4    5410057.8 
    1900        0.475    4902.5847    50090.328     -1767432    269738.79   -1497693.2    5402218.2 
    2000          0.5    4902.6901    50182.149   -1767432.7    269744.59   -1497688.1    5394378.6 
    2100        0.525    4902.8168    50265.117   -1767438.8    269751.56   -1497687.2    5386539.1 
    2200         0.55    4902.2902    50364.195   -1767409.4    269722.58   -1497686.8    5378699.5 
    2300        0.575    4902.6428    50422.769   -1767435.4    269741.98   -1497693.4    5370859.9 
    2400          0.6    4902.5997    50479.045     -1767448    269739.61   -1497708.4    5363020.4 
    2500        0.625    4901.8393    50551.104   -1767417.1    269697.78   -1497719.3    5355180.8 
    2600         0.65    4902.1128    50627.107   -1767434.7    269712.82   -1497721.9    5347341.2 
    2700        0.675    4902.3394    50712.906   -1767443.9    269725.29   -1497718.6    5339501.6 
    2800          0.7    4902.6413    50784.873     -1767459     269741.9   -1497717.1    5331662.1 
    2900        0.725    4901.7601    50860.006   -1767411.4    269693.42     -1497718    5323822.5 
    3000         0.75     4902.165    50919.754   -1767427.9     269715.7   -1497712.2    5315982.9 
    3100        0.775    4903.1807    50890.729   -1767472.9    269771.58   -1497701.4    5308143.3 
    3200          0.8    4908.8886     50885.93   -1767778.4    270085.63   -1497692.8    5300303.8 
    3300        0.825    4915.7361    50756.839   -1768151.2    270462.37   -1497688.8    5292464.2 
    3400         0.85    4940.0763    50949.545   -1769492.3    271801.56   -1497690.8    5284624.6 
    3500        0.875    4903.8968    53434.015   -1767511.1    269810.98   -1497700.2    5276785.1 
    3600          0.9     4877.881    56899.905     -1766088     268379.6   -1497708.4    5268945.5 
    3700        0.925    4846.3946    60218.605   -1764352.4    266647.22   -1497705.2    5261105.9 
    3800         0.95    4813.2813    63617.522   -1762520.4    264825.34   -1497695.1    5253266.3 
    3900        0.975     4779.353    67036.683   -1760651.8    262958.62   -1497693.2    5245426.8 
    4000            1    4752.6323    70475.889   -1759198.1    261488.45   -1497709.6    5237587.2 
    4100        1.025    4718.3031    73854.702   -1757331.6    259599.67   -1497731.9    5229747.6 
    4200         1.05      4688.01    77355.003   -1755674.7    257932.95   -1497741.7      5221908 
    4300        1.075    4653.2612    80726.595   -1753758.9    256021.08   -1497737.8    5214068.5 
    4400          1.1      4626.55    84206.297   -1752286.5    254551.44   -1497735.1    5206228.9 
    4500        1.125    4592.6583    87680.074   -1750419.8    252686.73   -1497733.1    5198389.3 
    4600         1.15    4562.1444    91197.568   -1748737.2    251007.86   -1497729.3    5190549.8 
    4700        1.175    4530.2588    94683.741   -1746981.6    249253.53   -1497728.1    5182710.2 
    4800          1.2    4500.9994    98216.611   -1745368.1    247643.68   -1497724.4    5174870.6 
    4900        1.225    4466.7868    101703.92   -1743477.9    245761.31   -1497716.6      5167031 
    5000         1.25    4436.8939     105264.1   -1741824.2    244116.62   -1497707.6    5159191.5 
    5100        1.275    4405.2484    108819.96   -1740082.4    242375.49   -1497706.9    5151351.9 
    5200          1.3    4375.0196    112437.77   -1738428.6    240712.31   -1497716.3    5143512.3 
    5300        1.325    4341.6776    116343.68   -1736604.3    238877.84   -1497726.5    5135672.7 
    5400         1.35    4317.4228    119325.99   -1735273.3    237543.35   -1497729.9    5127833.2 
    5500        1.375    4332.3735    119971.11   -1736092.1    238365.94   -1497726.1    5119993.6 
    5600          1.4    4329.0217    119531.82   -1735906.6    238181.52   -1497725.1      5112154 
    5700        1.425    4317.1282    119702.09   -1735262.9    237527.14   -1497735.7    5104314.5 
    5800         1.45    4329.2552    120314.09   -1735939.7    238194.37   -1497745.3    5096474.9 
    5900        1.475    4315.5025    121428.58   -1735177.8     237437.7   -1497740.1    5088635.3 
    6000          1.5    4315.0069    121816.22   -1735137.4    237410.43     -1497727    5080795.7 
    6100        1.525    4323.6582    121587.08   -1735608.3    237886.42   -1497721.9    5072956.2 
    6200         1.55    4300.1341     121979.3   -1734325.5    236592.13   -1497733.3    5065116.6 
    6300        1.575    4325.4719    122194.95   -1735730.9    237986.21   -1497744.7      5057277 
    6400          1.6    4301.0904     122899.1   -1734392.5    236644.75   -1497747.7    5049437.4 
    6500        1.625    4316.2696    123115.21   -1735226.9     237479.9     -1497747    5041597.9 
    6600         1.65    4309.8475    122993.64   -1734878.7    237126.56   -1497752.1    5033758.3 
    6700        1.675    4303.0319    123467.97   -1734514.9    236751.57   -1497763.4    5025918.7 
    6800          1.7    4309.5977    124546.43   -1734877.3    237112.82   -1497764.5    5018079.2 
    6900        1.725    4273.0524    126856.33     -1732855     235102.1   -1497752.9    5010239.6 
    7000         1.75    4258.7929    129420.09   -1732057.8    234317.55   -1497740.3      5002400 
    7100        1.775    4206.6711    132374.58   -1729183.6    231449.82   -1497733.8    4994560.4 
    7200          1.8    4190.2551    135579.23   -1728274.3    230546.62   -1497727.7    4986720.9 
    7300        1.825    4147.6685    138685.63   -1725912.8    228203.52   -1497709.3    4978881.3 
    7400         1.85    4104.2959    141684.79   -1723511.2    225817.17     -1497694    4971041.7 
    7500        1.875    4072.6635     145396.6   -1721774.2    224076.77   -1497697.5    4963202.1 
    7600          1.9    4028.4962     148951.9   -1719354.7    221646.69     -1497708    4955362.6 
    7700        1.925    3988.4554    152346.45   -1717152.1    219443.66   -1497708.4      4947523 
    7800         1.95     3942.388    156443.36   -1714612.4    216909.04   -1497703.4    4939683.4 
    7900        1.975      3905.79    160705.21   -1712600.4    214895.43     -1497705    4931843.9 
    8000            2    3856.5825    164593.75   -1709894.7    212188.05   -1497706.6    4924004.3 
    8100        2.025    3820.3586    168615.55   -1707888.9    210195.02   -1497693.9    4916164.7 
    8200         2.05    3784.4505    172551.09     -1705889    208219.37   -1497669.7    4908325.1 
    8300        2.075    3749.1448    176153.68   -1703936.8    206276.86     -1497660    4900485.6 
    8400          2.1    3718.1456    179827.53   -1702239.1    204571.29   -1497667.8      4892646 
    8500        2.125    3690.6936    183462.83   -1700732.3    203060.89   -1497671.4    4884806.4 
    8600         2.15    3669.8026     187046.2   -1699570.7    201911.48   -1497659.2    4876966.8 
    8700        2.175     3649.386    190607.14   -1698432.2    200788.16     -1497644    4869127.3 
    8800          2.2    3633.0727    194324.48   -1697533.2    199890.61   -1497642.6    4861287.7 
    8900        2.225    3604.0875    198054.73   -1695940.5    198295.85   -1497644.6    4853448.1 
    9000         2.25    3591.3047    201871.87   -1695225.8    197592.54   -1497633.3    4845608.6 
    9100        2.275    3569.5802    205621.55   -1694014.8    196397.27   -1497617.6      4837769 
    9200          2.3    3552.0599    209437.35     -1693048     195433.3   -1497614.7    4829929.4 
    9300        2.325    3532.8421    213231.15     -1692008    194375.95   -1497632.1    4822089.8 
    9400         2.35    3517.0842    217009.83   -1691155.8    193508.95   -1497646.8    4814250.3 
    9500        2.375    3498.8858    220959.29   -1690148.6    192507.68   -1497640.9    4806410.7 
    9600          2.4    3480.7537    224934.86   -1689140.6    191510.06   -1497630.5    4798571.1 
    9700        2.425    3456.5053    229026.15     -1687818    190175.92   -1497642.1    4790731.5 
    9800         2.45    3424.5874    233389.56   -1686087.7     188419.8   -1497667.9      4782892 
    9900        2.475    3405.3543    237704.38   -1685033.4    187361.61   -1497671.7    4775052.4 
   10000          2.5    3370.9467    241996.08   -1683114.5    185468.51     -1497646    4767212.8 
   10100        2.525    3346.3637     246211.7   -1681735.3    184115.96   -1497619.3    4759373.3 
   10200         2.55    3313.7968    250409.42   -1679939.2    182324.14   -1497615.1    4751533.7 
   10300        2.575    3280.5361    254904.08   -1678118.1    180494.15     -1497624    4743694.1 
   10400          2.6    3245.0162    259580.71   -1676160.5    178539.85   -1497620.7    4735854.5 
   10500        2.625    3207.6312    264432.22   -1674088.2    176482.94   -1497605.3      4728015 
   10600         2.65    3171.4237    269120.46   -1672089.4    174490.81   -1497598.6    4720175.4 
   10700        2.675    3133.0916    273767.45   -1669983.1    172381.79   -1497601.3    4712335.8 
   10800          2.7    3101.2374    278225.17   -1668226.9    170629.18   -1497597.7    4704496.2 
   10900        2.725    3080.2717    281431.46   -1667060.4    169475.65   -1497584.8    4696656.7 
   11000         2.75    3081.7349    282703.35   -1667128.3    169556.16   -1497572.1    4688817.1 
   11100        2.775    3071.8301    283063.67   -1666573.5     169011.2   -1497562.3    4680977.5 
   11200          2.8    3071.7482    283716.46   -1666557.8     169006.7   -1497551.1      4673138 
   11300        2.825    3072.1074    284542.16   -1666574.8    169026.46   -1497548.3    4665298.4 
   11400         2.85    3062.8578    284809.47   -1666075.2    168517.55   -1497557.7    4657458.8 
   11500        2.875    3066.3047    284368.03   -1666274.6     168707.2   -1497567.4    4649619.2 
   11600          2.9    3054.6464    284282.84   -1665638.9    168065.76   -1497573.2    4641779.7 
   11700        2.925    3057.1663    284558.33   -1665784.4    168204.41     -1497580    4633940.1 
   11800         2.95    3048.1196    285164.42   -1665294.1    167706.65   -1497587.4    4626100.5 
   11900        2.975    3041.2479    285327.65   -1664923.7    167328.58   -1497595.2    4618260.9 
   12000            3    3040.5277    285241.13   -1664893.7    167288.95   -1497604.7    4610421.4 
   12100        3.025    3015.5234    285917.61   -1663531.7    165913.23   -1497618.5    4602581.8 
   12200         3.05    3016.1093    286977.47   -1663577.1    165945.46   -1497631.6    4594742.2 
   12300        3.075     2985.182    288897.52   -1661876.6    164243.85   -1497632.7    4586902.7 
   12400          3.1    2960.7923    291170.28   -1660527.1    162901.93   -1497625.2    4579063.1 
   12500        3.125    2913.6573    294438.23   -1657928.7    160308.58   -1497620.2    4571223.5 
   12600         3.15    2860.1306    298332.68   -1654985.2    157363.56   -1497621.7    4563383.9 
   12700        3.175    2827.5172    302439.01   -1653195.6    155569.18   -1497626.4    4555544.4 
   12800          3.2    2770.9869    306956.87   -1650089.4    152458.89   -1497630.5    4547704.8 
   12900        3.225    2728.5312    311398.26   -1647755.3       150123   -1497632.3    4539865.2 
   13000         3.25    2682.9324       315810   -1645243.4    147614.16   -1497629.3    4532025.6 
   13100        3.275    2646.1633    319898.54   -1643216.3    145591.14   -1497625.2    4524186.1 
   13200          3.3    2610.4008    323960.04     -1641252    143623.49   -1497628.6    4516346.5 
   13300        3.325    2573.0688    328320.73   -1639206.8     141569.5   -1497637.3    4508506.9 
   13400         3.35    2553.7785    332290.99   -1638146.4    140508.15   -1497638.3    4500667.4 
   13500        3.375    2531.0794    335830.89   -1636884.5    139259.25   -1497625.3    4492827.8 
   13600          3.4    2522.2108    339556.32   -1636380.9     138771.3   -1497609.6    4484988.2 
   13700        3.425     2514.926    342994.02   -1635976.7     138370.5   -1497606.2    4477148.6 
   13800         3.45    2501.3156    346401.08   -1635239.4    137621.66   -1497617.8    4469309.1 
   13900        3.475    2502.6644    349595.21   -1635331.1    137695.87   -1497635.2    4461469.5 
   14000          3.5    2491.1016    353188.14   -1634703.2    137059.69   -1497643.5    4453629.9 
   14100        3.525    2489.7449    356904.37   -1634622.3    136985.04   -1497637.2    4445790.3 
   14200         3.55    2480.4886     360974.9   -1634101.6    136475.76   -1497625.9    4437950.8 
   14300        3.575    2474.0705    365177.34   -1633741.8    136122.64   -1497619.2    4430111.2 
   14400          3.6    2468.9556    369357.19   -1633459.1    135841.22   -1497617.9    4422271.6 
   14500        3.625    2453.1846    373870.44   -1632594.1    134973.51   -1497620.6    4414432.1 
   14600         3.65    2435.2793    379059.89     -1631616    133988.36   -1497627.7    4406592.5 
   14700        3.675    2397.4243    384996.59   -1629536.7    131905.59   -1497631.2    4398752.9 
   14800          3.7    2370.9927    390911.86   -1628075.1    130451.33   -1497623.8    4390913.3 
   14900        3.725     2328.854    397058.52   -1625746.1    128132.87   -1497613.3    4383073.8 
   15000         3.75     2290.022     403315.4   -1623608.6    125996.35   -1497612.2    4375234.2 
   15100        3.775    2248.5215    409820.66   -1621327.9       123713   -1497614.9    4367394.6 
   15200          3.8    2208.3186     416460.8   -1619121.4    121501.05   -1497620.4      4359555 
   15300        3.825    2167.2196    422810.13   -1616861.1     119239.8   -1497621.3    4351715.5 
   15400         3.85    2124.3321    429116.52   -1614499.1    116880.14   -1497618.9    4343875.9 
   15500        3.875    2085.8383    434905.01   -1612387.4    114762.22   -1497625.2    4336036.3 
   15600          3.9    2046.7406    440100.17   -1610255.9    112611.07   -1497644.8    4328196.8 
   15700        3.925    2017.1542    444496.77   -1608656.1    110983.24   -1497672.8    4320357.2 
   15800         3.95    1987.8637    448533.92   -1607059.6    109371.69   -1497687.9    4312517.6 
   15900        3.975    1958.1889    452527.23   -1605417.4    107738.99   -1497678.4      4304678 
   16000            4     1930.271    456445.43     -1603856    106202.95     -1497653    4296838.5 
   16100        4.025    1903.3925     460466.8   -1602353.3     104724.1   -1497629.2    4288998.9 
   16200         4.05    1879.7817    464204.35   -1601047.3    103425.04   -1497622.3    4281159.3 
   16300        4.075    1855.3855    467880.68   -1599701.2    102082.77   -1497618.4    4273319.7 
   16400          4.1    1829.4062    471226.98     -1598253     100653.4   -1497599.6    4265480.2 
   16500        4.125    1821.0528     473768.8   -1597772.9     100193.8   -1497579.1    4257640.6 
   16600         4.15    1815.2837    475074.41   -1597450.1    99876.382   -1497573.7      4249801 
   16700        4.175    1801.2644    475477.35   -1596685.9    99105.044   -1497580.8    4241961.5 
   16800          4.2     1796.848    475967.74   -1596442.9    98862.053   -1497580.9    4234121.9 
   16900        4.225    1774.0819    477296.28   -1595175.5    97609.471     -1497566    4226282.3 
   17000         4.25    1756.1784    479058.34   -1594179.6    96624.425   -1497555.2    4218442.7 
   17100        4.275    1743.9352    480873.14   -1593511.6    95950.807   -1497560.8    4210603.2 
   17200          4.3    1713.8441    482962.22   -1591866.4    94295.204   -1497571.2    4202763.6 
   17300        4.325    1696.3967    484622.05   -1590906.7    93335.253   -1497571.5      4194924 
   17400         4.35    1668.2524    486681.24   -1589348.1    91786.765   -1497561.3    4187084.4 
   17500        4.375    1632.5944    489615.43   -1587377.4     89824.87   -1497552.5    4179244.9 
   17600          4.4    1615.4266    492542.06   -1586435.5    88880.305   -1497555.1    4171405.3 
   17700        4.425    1577.9266    495791.42   -1584375.5    86817.066   -1497558.4    4163565.7 
   17800         4.45     1553.859    498850.98   -1583049.6     85492.87   -1497556.7    4155726.2 
   17900        4.475    1528.3179    502018.05   -1581645.7    84087.608   -1497558.1    4147886.6 
   18000          4.5    1496.8295    505858.69   -1579920.1    82355.124     -1497565      4140047 
   18100        4.525    1471.7164    510050.27   -1578541.2    80973.407   -1497567.8    4132207.4 
   18200         4.55    1443.4084    514321.76   -1576974.4    79415.912   -1497558.5    4124367.9 
   18300        4.575    1442.1059    518075.28   -1576886.3    79344.249   -1497542.1    4116528.3 
   18400          4.6    1426.7523    521689.62   -1576032.2    78499.497   -1497532.7    4108688.7 
   18500        4.625       1419.5    524879.28   -1575638.7    78100.481   -1497538.2    4100849.1 
   18600         4.65     1409.794    528157.68   -1575116.3     77566.46   -1497549.9    4093009.6 
   18700        4.675    1407.9476    531600.17   -1575021.2     77464.87   -1497556.4      4085170 
   18800          4.7    1407.2043    535036.93   -1574975.9    77423.971   -1497551.9    4077330.4 
   18900        4.725    1408.3727    538577.12   -1575034.8    77488.255   -1497546.6    4069490.9 
   19000         4.75    1407.0074    542013.12   -1574960.3    77413.137   -1497547.1    4061651.3 
   19100        4.775    1399.1343    545998.18   -1574536.6    76979.964   -1497556.7    4053811.7 
   19200          4.8    1397.4109    550430.62   -1574452.9    76885.142   -1497567.8    4045972.1 
   19300        4.825    1386.4598    555265.09   -1573853.3    76282.616   -1497570.6    4038132.6 
   19400         4.85    1373.4636    560235.48   -1573133.5    75567.569     -1497566      4030293 
   19500        4.875    1346.9072    565710.17   -1571652.1    74106.442   -1497545.6    4022453.4 
   19600          4.9     1313.221    572532.06   -1569760.7     72253.04   -1497507.7    4014613.8 
   19700        4.925    1281.5942    579781.17     -1567957    70512.941     -1497444    4006774.3 
   19800         4.95    1247.9902    586604.56     -1565975    68664.059   -1497310.9    3998934.7 
   19900        4.975      1214.33    592896.97   -1563821.4    66812.084   -1497009.3    3991095.1 
   20000            5    1189.5983    598846.67   -1561854.7    65451.354   -1496403.3    3983255.6 
   20100        5.025    1169.0443    605548.92   -1559573.4    64320.476   -1495252.9      3975416 
   20200         5.05    1164.4129    613802.59   -1556390.2     64065.66   -1492324.6    3967576.4 
   20300        5.075    1218.9618    623802.49   -1552874.4    67066.923   -1485807.5    3959736.8 
   20400          5.1    1293.6431    633809.68   -1549276.7    71175.869   -1478100.8    3951897.3 
   20500        5.125    1344.4746    642601.19   -1546208.5    73972.602   -1472235.9    3944057.7 
   20600         5.15    1380.9966    650960.42   -1542846.8     75982.03   -1466864.8    3936218.1 
   20700        5.175    1446.9334    659886.53   -1539932.3    79609.855   -1460322.5    3928378.5 
   20800          5.2    1509.8112    669170.03   -1536880.5    83069.374   -1453811.2      3920539 
   20900        5.225    1536.8084    678339.85   -1533240.8    84554.752     -1448686    3912699.4 
   21000         5.25    1555.2227    687440.72   -1529440.2    85567.904   -1443872.3    3904859.8 
   21100        5.275    1560.8295    697796.12   -1523839.6    85876.386   -1437963.2    3897020.3 
   21200          5.3    1550.1222    708607.17   -1517052.8    85287.273   -1431765.5    3889180.7 
   21300        5.325    1552.8992    719670.03   -1511938.9    85440.064   -1426498.8    3881341.1 
   21400         5.35    1526.8481    729561.69   -1505339.7    84006.737     -1421333    3873501.5 
   21500        5.375    1577.3209    736126.23   -1501530.1    86783.739   -1414746.3      3865662 
   21600          5.4    1602.3063    740641.32   -1495183.7    88158.427   -1407025.2    3857822.4 
   21700        5.425    1642.5012    745809.78   -1489276.3     90369.94   -1398906.3    3849982.8 
   21800         5.45    1699.3591     753700.4   -1482521.5    93498.246   -1389023.3    3842143.2 
   21900        5.475    1805.8295    764706.48   -1475777.2    99356.215     -1376421    3834303.7 
   22000          5.5     1930.228    775793.37   -1469940.1    106200.58   -1363739.5    3826464.1 
   22100        5.525    2010.3628    785702.83   -1464027.7    110609.58   -1353418.1    3818624.5 
   22200         5.55    2082.3621    794604.46   -1458877.7    114570.96   -1344306.7      3810785 
   22300        5.575    2149.1743    803664.56   -1453177.3    118246.95   -1334930.4    3802945.4 
   22400          5.6     2185.827    812580.73   -1446422.1    120263.57   -1326158.5    3795105.8 
   22500        5.625    2204.7369    820932.72   -1440512.1    121303.99   -1319208.1    3787266.2 
   22600         5.65    2184.3326    828969.78     -1433802    120181.34   -1313620.7    3779426.7 
   22700        5.675    2166.1559    837041.61   -1427611.4    119181.27   -1308430.1    3771587.1 
   22800          5.7    2144.0077    844812.86   -1420890.6    117962.68   -1302927.9    3763747.5 
   22900        5.725    2137.6356    852905.69   -1413826.1    117612.09     -1296214    3755907.9 
   23000         5.75    2149.6174    862216.32   -1406545.7    118271.32   -1288274.3    3748068.4 
   23100        5.775    2149.4271    873231.43   -1399153.7    118260.85   -1280892.9    3740228.8 
   23200          5.8    2118.4594    885685.33   -1391700.4    116557.02   -1275143.3    3732389.2 
   23300        5.825    2102.5925    898493.07     -1385573    115684.03   -1269888.9    3724549.7 
   23400         5.85    2115.7927    911944.48   -1379885.3     116410.3     -1263475    3716710.1 
   23500        5.875    2147.1214    925581.09   -1374355.9    118133.99   -1256221.9    3708870.5 
   23600          5.9    2155.0453    939018.74   -1368604.9    118569.97   -1250034.9    3701030.9 
   23700        5.925    2149.0121    952441.14     -1363218    118238.02     -1244980    3693191.4 
   23800         5.95    2169.1108    965916.18   -1358731.3    119343.85   -1239387.5    3685351.8 
   23900        5.975    2215.2555    979736.17   -1354391.3    121882.71   -1232508.6    3677512.2 
   24000            6    2270.4611    992754.38   -1350152.4    124920.11   -1225232.3    3669672.6 
   24100        6.025     2318.862    1004658.9   -1345450.7    127583.11   -1217867.5    3661833.1 
   24200         6.05    2393.0244    1016720.4   -1340894.4    131663.51   -1209230.9    3653993.5 
   24300        6.075    2502.4636    1029594.9   -1336462.1    137684.82   -1198777.3    3646153.9 
   24400          6.1    2610.8765      1043358   -1331294.9    143649.67   -1187645.2    3638314.4 
   24500        6.125    2727.6098    1056430.5   -1326552.1     150072.3   -1176479.8    3630474.8 
   24600         6.15    2867.9816    1068656.6   -1322345.5    157795.51     -1164550    3622635.2 
   24700        6.175    3029.8667    1081616.9   -1318540.4    166702.39     -1151838    3614795.6 
   24800          6.2    3198.9534    1094563.9   -1315408.6    176005.49   -1139403.1    3606956.1 
   24900        6.225    3353.9826    1106444.3   -1312133.4    184535.15   -1127598.2    3599116.5 
   25000         6.25    3504.2832    1115999.9   -1308787.5    192804.65   -1115982.9    3591276.9 
   25100        6.275      3660.66    1124421.5   -1305795.9    201408.45   -1104387.4    3583437.3 
   25200          6.3    3799.3456    1133718.2   -1301683.9    209038.89     -1092645    3575597.8 
   25300        6.325    3930.6503    1143477.4   -1296594.7    216263.24   -1080331.4    3567758.2 
   25400         6.35    4083.9903    1152181.1   -1292501.6    224699.96   -1067801.6    3559918.6 
   25500        6.375    4192.7568    1159867.9   -1286761.4    230684.26   -1056077.1    3552079.1 
   25600          6.4    4292.8813    1167629.6     -1281320    236193.09   -1045126.9    3544239.5 
   25700        6.425    4396.3507    1176801.6   -1276014.1    241885.94   -1034128.2    3536399.9 
   25800         6.45    4503.7273    1186574.9   -1271111.9    247793.77   -1023318.1    3528560.3 
   25900        6.475    4587.1217    1196333.4   -1266052.9     252382.1   -1013670.8    3520720.8 
   26000          6.5    4659.3259    1206461.7   -1261460.1    256354.76   -1005105.4    3512881.2 
   26100        6.525    4725.4212    1217256.9   -1256770.8     259991.3   -996779.51    3505041.6 
   26200         6.55    4791.1273      1228810   -1252182.8    263606.44    -988576.4      3497202 
   26300        6.575    4850.7546    1240475.8   -1247649.2    266887.11   -980762.12    3489362.5 
   26400          6.6     4917.641      1252287   -1243482.5    270567.18   -972915.37    3481522.9 
   26500        6.625    4988.6266    1264930.9   -1239000.3    274472.79   -964527.46    3473683.3 
   26600         6.65    5049.3549    1278494.6   -1233916.3    277814.04   -956102.28    3465843.8 
   26700        6.675     5080.217      1293323   -1227854.1    279512.06   -948342.04    3458004.2 
   26800          6.7    5092.5113    1309091.1   -1220960.9    280188.49   -940772.42    3450164.6 
   26900        6.725    5112.3519    1325812.4   -1213810.4    281280.12   -932530.27      3442325 
   27000         6.75    5134.5367      1343700   -1206393.2    282500.72   -923892.46    3434485.5 
   27100        6.775    5144.8924    1362551.2   -1198658.4    283070.49   -915587.86    3426645.9 
   27200          6.8    5145.2771    1381026.5     -1190554    283091.65   -907462.36    3418806.3 
   27300        6.825    5152.8564    1397620.2   -1182645.6    283508.66   -899136.96    3410966.7 
   27400         6.85    5155.6154    1412582.5   -1174793.9    283660.47   -891133.44    3403127.2 
   27500        6.875    5136.9124    1426416.6   -1166622.5    282631.43   -883991.11    3395287.6 
   27600          6.9    5117.1301    1439046.9   -1158793.4    281543.01    -877250.4      3387448 
   27700        6.925      5110.14    1451134.9   -1151383.6    281158.42   -870225.22    3379608.5 
   27800         6.95    5109.5292    1463188.2   -1144328.6    281124.82   -863203.79    3371768.9 
   27900        6.975    5103.2844    1474889.2   -1137642.3    280781.23   -856861.06    3363929.3 
   28000            7    5092.7068    1485562.4   -1131208.4    280199.25   -851009.12    3356089.7 
   28100        7.025    5095.5971    1495577.2   -1125244.6    280358.27   -844886.36    3348250.2 
   28200         7.05    5111.5725    1505361.3   -1119668.1    281237.24   -838430.88    3340410.6 
   28300        7.075    5125.9358    1515472.6   -1114341.5     282027.5   -832313.98      3332571 
   28400          7.1    5142.3784    1526070.2   -1109741.8    282932.17   -826809.58    3324731.4 
   28500        7.125    5168.0467    1536552.7   -1105902.5    284344.43   -821558.09    3316891.9 
   28600         7.15    5199.5139    1546622.8   -1102511.8    286075.75   -816436.07    3309052.3 
   28700        7.175    5227.8715    1556735.7   -1099397.8    287635.98   -811761.87    3301212.7 
   28800          7.2    5247.1642    1566597.6   -1096346.3    288697.45   -807648.82    3293373.2 
   28900        7.225    5278.9187    1576441.8   -1094138.9    290444.58   -803694.27    3285533.6 
   29000         7.25    5312.5901    1585787.1   -1091838.9    292297.16   -799541.77      3277694 
   29100        7.275    5360.8803    1595411.9   -1090271.2    294954.08   -795317.12    3269854.4 
   29200          7.3    5398.7949    1605994.6   -1088158.7    297040.13   -791118.61    3262014.9 
   29300        7.325    5434.6005    1619360.7   -1085508.3    299010.14   -786498.15    3254175.3 
   29400         7.35    5455.1097    1635368.5   -1080947.5    300138.55   -780808.98    3246335.7 
   29500        7.375    5499.4521    1652019.1   -1076449.3    302578.26      -773871    3238496.1 
   29600          7.4    5561.6426    1669199.5   -1072016.6    305999.97   -766016.63    3230656.6 
   29700        7.425    5617.0531      1686214   -1066699.6    309048.63   -757650.99      3222817 
   29800         7.45    5676.1641    1703602.7   -1061238.7     312300.9   -748937.81    3214977.4 
   29900        7.475    5701.9283    1721598.1   -1053698.8    313718.44   -739980.31    3207137.9 
   30000          7.5    5724.7321    1740245.2   -1045796.3     314973.1   -730823.25    3199298.3 
   30100        7.525    5736.6226      1759038     -1036933    315627.31   -721305.73    3191458.7 
   30200         7.55    5739.3179    1777298.8   -1027123.6    315775.61      -711348    3183619.1 
   30300        7.575    5733.6568    1793669.9   -1016703.2    315464.13   -701239.09    3175779.6 
   30400          7.6    5713.3463    1806207.1   -1005591.5    314346.66   -691244.88      3167940 
   30500        7.625    5674.5506    1816525.8   -993476.62    312212.13    -681264.5    3160100.4 
   30600         7.65    5605.7474    1829191.6      -979503     308426.6   -671076.41    3152260.8 
   30700        7.675    5516.7446    1846833.4   -964327.13    303529.69   -660797.44    3144421.3 
   30800          7.7     5411.187      1868978   -948360.33    297721.94   -650638.39    3136581.7 
   30900        7.725    5304.4578    1890983.3   -932472.64    291849.73   -640622.91    3128742.1 
   31000         7.75    5191.7884    1912690.3   -916304.25    285650.69   -630653.56    3120902.6 
   31100        7.775    5077.7389      1934766   -900115.88    279375.72   -620740.16      3113063 
   31200          7.8    4970.4683    1956831.6   -884543.37    273473.72   -611069.65    3105223.4 
   31300        7.825    4871.0209    1979396.3   -869751.27    268002.16   -601749.11    3097383.8 
   31400         7.85    4784.7015    2001715.7   -855932.88    263252.89   -592679.99    3089544.3 
   31500        7.875    4708.0038    2023606.5   -842715.33       259033   -583682.33    3081704.7 
   31600          7.9    4638.8783    2045716.7   -829910.03    255229.74    -574680.3    3073865.1 
   31700        7.925     4576.923    2069007.7   -817471.88    251820.98    -565650.9    3066025.5 
   31800         7.95    4516.3771    2093243.2   -805090.81    248489.76   -556601.06      3058186 
   31900        7.975    4454.9481    2118461.7   -792666.33    245109.95   -547556.38    3050346.4 
   32000            8    4395.1297    2143528.9   -780356.62    241818.76   -538537.85    3042506.8 
   32100        8.025    4338.9584    2168875.4   -768242.88    238728.24   -529514.64    3034667.3 
   32200         8.05    4296.4662    2193902.8   -756724.65    236390.32   -520334.33    3026827.7 
   32300        8.075    4272.9676    2217191.1   -745939.85    235097.44   -510842.41    3018988.1 
   32400          8.1     4280.492    2237848.3   -736596.46    235511.43   -501085.03    3011148.5 
   32500        8.125    4326.9979      2254958   -729361.22    238070.17   -491291.04      3003309 
   32600         8.15    4389.2903    2267333.8   -723143.56    241497.48   -481646.09    2995469.4 
   32700        8.175    4473.9236    2276611.9   -718277.46    246153.98   -472123.48    2987629.8 
   32800          8.2    4560.0546    2284403.3    -713505.1    250892.88   -462612.22    2979790.2 
   32900        8.225    4632.8336    2293810.2   -708041.71    254897.16   -453144.55    2971950.7 
   33000         8.25    4679.7948    2306318.4   -701269.22    257480.95   -443788.27    2964111.1 
   33100        8.275    4689.9802    2322419.5   -692578.94    258041.35   -434537.59    2956271.5 
   33200          8.3    4705.0235    2338974.3   -684169.95    258869.03   -425300.92      2948432 
   33300        8.325    4689.3136    2355932.2   -673984.42    258004.67   -415979.74    2940592.4 
   33400         8.35    4664.1398      2374812   -663213.85    256619.62   -406594.23    2932752.8 
   33500        8.375    4640.4934    2396561.5   -652529.36     255318.6   -397210.76    2924913.2 
   33600          8.4     4606.955    2419475.3    -641397.4    253473.33   -387924.07    2917073.7 
   33700        8.425     4561.422    2443208.4   -629822.05    250968.11   -378853.93    2909234.1 
   33800         8.45    4507.1142      2467068   -618082.12    247980.12      -370102    2901394.5 
   33900        8.475    4414.5063    2491511.9   -604545.01    242884.86   -361660.15    2893554.9 
   34000          8.5    4319.4639    2516011.2   -591048.79    237655.65   -353393.14    2885715.4 
   34100        8.525    4196.6848    2540120.9   -576119.82    230900.38   -345219.44    2877875.8 
   34200         8.55     4082.145    2563569.9   -561816.02    224598.44   -337217.59    2870036.2 
   34300        8.575    3946.3287    2586542.9   -546589.24    217125.86   -329463.38    2862196.7 
   34400          8.6     3812.578    2609227.9   -531693.17    209766.94   -321926.24    2854357.1 
   34500        8.625    3681.0411    2631807.1   -517031.01    202529.81   -314501.19    2846517.5 
   34600         8.65    3553.8698    2653889.2   -502729.85    195532.89   -307196.96    2838677.9 
   34700        8.675    3422.2726    2675204.6   -488429.93    188292.45   -300137.48    2830838.4 
   34800          8.7    3306.9581    2694206.2   -475264.57    181947.87    -293316.7    2822998.8 
   34900        8.725    3212.0704    2709261.6   -463289.68    176727.18    -286562.5    2815159.2 
   35000         8.75    3126.5338    2720766.4   -451850.81    172020.98   -279829.83    2807319.6 
   35100        8.775    3046.0783    2731470.9   -440862.76    167594.35   -273268.42    2799480.1 
   35200          8.8    2982.9056    2743786.1   -431058.07     164118.6   -266939.47    2791640.5 
   35300        8.825    2905.8519    2759636.6   -420598.91    159879.13   -260719.78    2783800.9 
   35400         8.85    2847.4125    2778075.5   -411180.83    156663.81   -254517.03    2775961.4 
   35500        8.875    2797.4455    2797386.7   -402353.15    153914.64   -248438.51    2768121.8 
   35600          8.9    2751.4935      2816528   -393923.83    151386.38   -242537.46    2760282.2 
   35700        8.925    2728.5583      2836237   -386790.33    150124.49   -236665.84    2752442.6 
   35800         8.95    2703.1299    2858195.9   -379355.08    148725.43   -230629.66    2744603.1 
   35900        8.975    2699.0507    2880959.7   -372724.52    148500.99   -224223.53    2736763.5 
   36000            9    2705.4424    2903870.7   -365656.43    148852.66   -216803.77    2728923.9 
   36100        9.025    2728.4137    2928769.3   -357087.41    150116.53   -206970.88    2721084.3 
   36200         9.05    2780.9898    2956103.6   -346326.42    153009.25   -193317.16    2713244.8 
   36300        9.075    2867.6783    2986023.3    -333885.5    157778.83   -176106.67    2705405.2 
   36400          9.1    2961.5277    3017070.6    -320217.5    162942.39   -157275.11    2697565.6 
   36500        9.125     3031.584    3047513.2   -305574.11    166796.87   -138777.24    2689726.1 
   36600         9.15    3066.8817    3076979.7   -289669.66    168738.94   -120930.72    2681886.5 
   36700        9.175    3111.4223    3105398.3   -273729.91    171189.55   -102540.36    2674046.9 
   36800          9.2    3188.1898    3134313.2   -257641.44    175413.28    -82228.16    2666207.3 
   36900        9.225    3276.1783    3162979.8   -241233.75    180254.38   -60979.367    2658367.8 
   37000         9.25    3362.1073    3191971.3   -224779.55    184982.17   -39797.385    2650528.2 
   37100        9.275    3437.6668    3221746.7   -207653.43    189139.43       -18514    2642688.6 
   37200          9.3    3555.4506    3254447.2   -191062.33    195619.86     4557.525      2634849 
   37300        9.325    3673.4208    3289361.8   -173678.44    202110.55    28432.109    2627009.5 
   37400         9.35    3780.1758    3325172.2   -155827.34    207984.18    52156.836    2619169.9 
   37500        9.375    3894.8348      3360557   -139138.97    214292.68    75153.713    2611330.3 
   37600          9.4    3977.1833    3396628.2   -121091.02    218823.47    97732.455    2603490.8 
   37700        9.425     4087.407    3433999.8   -104486.62    224887.95    120401.33    2595651.2 
   37800         9.45    4205.8979    3471975.7    -88534.58    231407.28     142872.7    2587811.6 
   37900        9.475    4338.0523    3510997.6   -73020.369    238678.38    165658.01      2579972 
   38000          9.5    4518.6273    3551180.6   -59109.961    248613.56     189503.6    2572132.5 
   38100        9.525     4700.401    3592220.6   -44968.651     258614.7    213646.05    2564292.9 
   38200         9.55    4896.0518      3633718    -30968.19    269379.35    238411.16    2556453.3 
   38300        9.575    5116.0272    3675196.8   -17818.833    281482.33     263663.5    2548613.7 
   38400          9.6    5355.1294      3713186   -5892.9995    294637.67    288744.67    2540774.2 
   38500        9.625    5589.3933    3749556.5    6623.1769     307526.8    314149.97    2532934.6 
   38600         9.65    5861.0512    3783361.6    17412.091    322473.34    339885.43      2525095 
   38700        9.675    6103.6685    3815005.6    29187.271    335822.07    365009.34    2517255.5 
   38800          9.7    6327.9612    3847178.8     42184.22    348162.59    390346.81    2509415.9 
   38900        9.725    6536.5823    3880653.6    55557.791    359640.86    415198.65    2501576.3 
   39000         9.75    6688.3256    3917620.4     71415.19    367989.74    439404.93    2493736.7 
   39100        9.775     6843.761    3958318.6    86761.207    376541.74    463302.95    2485897.2 
   39200          9.8     6952.812    4000269.7    104403.62     382541.7    486945.32    2478057.6 
   39300        9.825     7057.573    4044561.6     121829.1    388305.62    510134.72      2470218 
   39400         9.85     7117.275    4090933.6    140955.11     391590.4    532545.52    2462378.4 
   39500        9.875    7213.3485      4139628    158226.04    396876.34    555102.38    2454538.9 
   39600          9.9    7279.5493    4189696.9    176959.99    400518.69    577478.68    2446699.3 
   39700        9.925    7342.4951    4241294.8    195615.03    403981.95    599596.98    2438859.7 
   39800         9.95    7380.6192    4293396.6    215536.23    406079.53    621615.75    2431020.2 
   39900        9.975    7421.7018    4345042.3    234461.02    408339.88     642800.9    2423180.6 
   40000           10    7472.4657    4394646.4    252929.33     411132.9    664062.22      2415341 
   40100       10.025    7507.5882    4441829.5    272051.99    413065.32    685117.32    2407501.4 
   40200        10.05    7578.6627    4486072.8    288947.16    416975.82    705922.99    2399661.9 
   40300       10.075    7649.1606    4527999.8    305082.92     420854.6    725937.52    2391822.3 
   40400         10.1    7702.2073    4568092.1    321499.24    423773.21    745272.45    2383982.7 
   40500       10.125    7776.1223    4609734.6    337004.76    427839.99    764844.75    2376143.1 
   40600        10.15    7856.9914    4652758.4    351908.74    432289.39    784198.13    2368303.6 
   40700       10.175    7916.8835    4697887.3    368114.17    435584.64     803698.8      2360464 
   40800         10.2    8010.9819    4745817.5    383212.58     440761.9    823974.48    2352624.4 
   40900       10.225    8096.8192    4798982.7    399957.44    445484.65    845442.09    2344784.9 
   41000        10.25    8195.8255    4853551.2    416847.23    450931.94    867779.17    2336945.3 
   41100       10.275    8345.0646      4911382    433166.13    459143.03    892309.17    2329105.7 
   41200         10.3    8450.6637    4972279.3     453025.5    464953.06    917978.56    2321266.1 
   41300       10.325    8552.3353    5036492.8     474212.7    470547.01    944759.71    2313426.6 
   41400        10.35    8638.3731    5101559.4    497011.52    475280.78     972292.3      2305587 
   41500       10.375    8699.0354    5167835.9    521591.06     478618.4    1000209.5    2297747.4 
   41600         10.4    8746.9546    5231910.9    546953.24    481254.91    1028208.1    2289907.8 
   41700       10.425    8763.3761    5296825.2    573409.76    482158.41    1055568.2    2282068.3 
   41800        10.45    8783.8629    5361280.5    599833.66    483285.59    1083119.2    2274228.7 
   41900       10.475     8782.362      5427160     627170.3    483203.01    1110373.3    2266389.1 
   42000         10.5    8771.6981      5496321    654657.77    482616.28    1137274.1    2258549.5 
   42100       10.525    8759.9784    5566283.3    681791.67    481971.47    1163763.1      2250710 
   42200        10.55    8765.7813    5640010.1     708301.9    482290.74    1190592.6    2242870.4 
   42300       10.575    8794.9208      5715631    733900.28    483893.99    1217794.3    2235030.8 
   42400         10.6    8848.5259    5792989.4    758670.89    486843.33    1245514.2    2227191.3 
   42500       10.625    8892.8493    5870816.1    783651.58    489281.99    1272933.6    2219351.7 
   42600        10.65    8973.1435    5948193.3    807585.11    493699.75    1301284.9    2211512.1 
   42700       10.675    9059.2494    6025468.8    831611.32    498437.28    1330048.6    2203672.5 
   42800         10.7    9143.8227    6101068.4    855832.53    503090.47      1358923      2195833 
   42900       10.725    9209.5686    6173105.6    880573.94    506707.79    1387281.7    2187993.4 
   43000        10.75     9265.082    6246265.4    905605.13    509762.13    1415367.3    2180153.8 
   43100       10.775    9259.3682    6320783.8    933230.19    509447.75    1442677.9    2172314.2 
   43200         10.8    9212.7413    6397574.4    962317.25    506882.35    1469199.6    2164474.7 
   43300       10.825    9130.4209    6480755.7    992422.56    502353.11    1494775.7    2156635.1 
   43400        10.85    9000.7139    6566876.2    1024324.9    495216.67    1519541.5    2148795.5 
   43500       10.875    8863.1758    6655566.7    1055943.6    487649.36    1543592.9      2140956 
   43600         10.9    8689.9446    6746700.3    1089037.9    478118.23    1567156.1    2133116.4 
   43700       10.925    8523.9467      6842384    1121666.3    468985.08    1590651.3    2125276.8 
   43800        10.95    8376.2793    6935771.8    1153436.4    460860.46    1614296.9    2117437.2 
   43900       10.975    8208.8806      7028547    1186566.4    451650.23    1638216.7    2109597.7 
   44000           11    8128.7043    7116434.6    1215591.8    447238.95    1662830.7    2101758.1 
   44100       11.025    8035.7866    7198739.5    1245774.1    442126.65    1687900.8    2093918.5 
   44200        11.05    8016.1079    7282007.5    1272513.7    441043.93    1713557.6    2086078.9 
   44300       11.075    7958.2562    7366863.9    1301496.7    437860.95    1739357.6    2078239.4 
   44400         11.1    7937.0977    7455194.7    1329332.1    436696.81    1766028.9    2070399.8 
   44500       11.125    7900.9677    7547540.3    1359442.3    434708.95    1794151.2    2062560.2 
   44600        11.15    7917.1819    7647558.6    1389515.9    435601.05      1825117    2054720.7 
   44700       11.175    7963.6452      7755350      1422970    438157.45    1861127.5    2046881.1 
   44800         11.2    8054.9368    7870582.4    1459683.5    443180.29    1902863.8    2039041.5 
   44900       11.225    8181.5442    7993664.9    1498556.3    450146.19    1948702.5    2031201.9 
   45000        11.25    8291.0259    8114691.2      1539850    456169.84    1996019.9    2023362.4 
   45100       11.275    8433.4001    8235915.2    1580713.1    464003.23    2044716.3    2015522.8 
   45200         11.3    8562.1538    8357815.4    1624056.6    471087.22    2095143.8    2007683.2 
   45300       11.325    8703.8413    8482169.5    1667284.4    478882.83    2146167.3    1999843.6 
   45400        11.35    8838.0466    8610792.2    1710308.9    486266.76    2196575.7    1992004.1 
   45500       11.375    8974.9381    8740982.6    1753171.8    493798.49    2246970.3    1984164.5 
   45600         11.4    9148.6118    8873394.3    1794688.1    503353.97    2298042.1    1976324.9 
   45700       11.425    9369.5244    9005979.2      1834429    515508.52    2349937.5    1968485.4 
   45800        11.45    9609.4354    9144858.9    1874842.3    528708.35    2403550.6    1960645.8 
   45900       11.475    9895.8399    9281039.1    1914735.4    544466.24    2459201.7    1952806.2 
   46000         11.5    10177.986      9417421    1955042.9    559989.84    2515032.7    1944966.6 
   46100       11.525    10403.923    9551951.4    1998010.4    572420.84    2570431.2    1937127.1 
   46200        11.55    10593.174    9689658.6    2042932.4    582833.35    2625765.7    1929287.5 
   46300       11.575    10747.349    9834567.5    2088763.6    591316.02    2680079.7    1921447.9 
   46400         11.6    10823.612    9983403.1    2138109.4    595511.98    2733621.3    1913608.3 
   46500       11.625    10863.447     10133372    2187804.9    597703.69    2785508.6    1905768.8 
   46600        11.65    10874.933     10285829    2238129.4    598335.67    2836465.1    1897929.2 
   46700       11.675    10868.109     10441511    2289287.2    597960.18    2887247.4    1890089.6 
   46800         11.7    10931.163     10596400    2337361.9    601429.43    2938791.3    1882250.1 
   46900       11.725    10985.549     10744917    2385049.3    604421.73      2989471    1874410.5 
   47000        11.75    11071.591     10891879    2430997.6    609155.75    3040153.3    1866570.9 
   47100       11.775    11209.001     11036313    2474704.9    616715.99    3091420.8    1858731.3 
   47200         11.8    11346.236     11187997    2519611.3    624266.59    3143877.9    1850891.8 
   47300       11.825    11438.071     11345533    2567182.4    629319.32    3196501.7    1843052.2 
   47400        11.85     11509.13     11510008    2618120.7       633229    3251349.7    1835212.6 
   47500       11.875    11583.857     11681383    2672530.2    637340.48    3309870.7      1827373 
   47600         11.9    11637.814     11859700    2730073.6    640309.14    3370382.7    1819533.5 
   47700       11.925    11680.649     12040473    2789995.7    642665.91    3432661.6    1811693.9 
   47800        11.95    11736.599     12221580    2850647.4    645744.28    3496391.7    1803854.3 
   47900       11.975    11718.933     12402414    2914878.1    644772.29    3559650.3    1796014.8 
   48000           12    11722.082     12589288    2978763.7    644945.57    3623709.3    1788175.2 
   48100       12.025    11753.557     12776391    3039933.7    646677.27    3686610.9    1780335.6 
   48200        12.05    11790.838     12965934    3100358.4    648728.47    3749086.9      1772496 
   48300       12.075     11876.42     13154742    3158845.6    653437.18    3812282.8    1764656.5 
   48400         12.1    11933.141     13347176    3218587.7    656557.95    3875145.6    1756816.9 
   48500       12.125    11971.367     13540665    3279548.1    658661.15    3938209.2    1748977.3 
   48600        12.15    11951.078     13734661    3342455.4    657544.87    4000000.3    1741137.7 
   48700       12.175     11859.92     13933960      3408720    652529.33    4061249.3    1733298.2 
   48800         12.2    11657.886     14135809    3478721.3    641413.52    4120134.8    1725458.6 
   48900       12.225    11438.068     14342366    3548980.2     629319.2    4178299.4      1717619 
   49000        12.25    11140.924     14549315    3621732.5     612970.4    4234702.9    1709779.5 
   49100       12.275    10894.291     14759774    3691830.1    599400.71    4291230.8    1701939.9 
   49200         12.3    10699.152     14964798    3759317.2    588664.25    4347981.5    1694100.3 
   49300       12.325    10520.075     15168199    3827242.9     578811.5    4406054.4    1686260.7 
   49400        12.35     10462.16     15379203    3891700.7    575625.02    4467325.7    1678421.2 
   49500       12.375    10436.302     15594059    3957736.7    574202.32      4531939    1670581.6 
   49600         12.4    10444.709     15819757    4027461.6    574664.86    4602126.5      1662742 
   49700       12.425    10510.397     16058837    4102874.3    578278.97    4681153.3    1654902.4 
   49800        12.45    10646.288     16304843    4181462.2    585755.65    4767217.9    1647062.9 
   49900       12.475    10774.946     16560248    4264730.9    592834.38    4857565.3    1639223.3 
   50000         12.5    10905.214     16816983    4348859.9    600001.74    4948861.7    1631383.7 
Loop time of 483.555 on 24 procs for 50000 steps with 425652 atoms

Performance: 2.233 ns/day, 10.746 hours/ns, 103.401 timesteps/s
99.8% CPU use with 24 MPI tasks x 1 OpenMP threads

MPI task timing breakdown:
Section |  min time  |  avg time  |  max time  |%varavg| %total
---------------------------------------------------------------
Pair    | 227.69     | 244.52     | 268.17     |  56.8 | 50.57
Neigh   | 0.12947    | 0.13706    | 0.1436     |   1.1 |  0.03
Comm    | 56.413     | 58.011     | 62.566     |  25.8 | 12.00
Output  | 13.72      | 13.722     | 13.734     |   0.1 |  2.84
Modify  | 123.75     | 147.3      | 164.42     |  67.7 | 30.46
Other   |            | 19.87      |            |       |  4.11

Nlocal:        17735.5 ave       18110 max       17326 min
Histogram: 8 0 0 0 0 4 4 0 1 7
Nghost:        33422.2 ave       33875 max       32997 min
Histogram: 6 2 0 0 6 2 0 0 4 4
Neighs:         0.00000 ave           0 max           0 min
Histogram: 24 0 0 0 0 0 0 0 0 0

Total # of neighbors = 0
Ave neighs/atom = 0.0000000
Neighbor list builds = 739
Dangerous builds = 0


---------------------------------------------------------------------
      Device Time Info (average): 
---------------------------------------------------------------------
Data Transfer:   35.6010 s.
Neighbor copy:   0.0349 s.
Neighbor build:  3.8273 s.
Force calc:      137.8635 s.
Device Overhead: 66.2873 s.
Average split:   1.0000.
Lanes / atom:    4.
Vector width:    32.
Max Mem / Proc:  126.63 MB.
CPU Neighbor:    0.5052 s.
CPU Cast/Pack:   20.0661 s.
CPU Driver_Time: 0.9521 s.
CPU Idle_Time:   63.2536 s.
---------------------------------------------------------------------

Total wall time: 0:08:12
