LAMMPS (29 Sep 2021)
  using 1 OpenMP thread(s) per MPI task
Reading restart file ...
  restart file = 29 Sep 2021, LAMMPS = 29 Sep 2021
  restoring atom style atomic from restart
  orthogonal box = (-0.60828689 -0.60443914 0.0000000) to (101.68096 101.67711 614.62500)
  3 by 2 by 16 MPI processor grid
  pair style hybrid/overlay stores no restart info
  440002 atoms
  read_restart CPU = 0.199 seconds
Resetting global fix info from restart file:
  fix style: npt, fix ID: 2

CITE-CITE-CITE-CITE-CITE-CITE-CITE-CITE-CITE-CITE-CITE-CITE-CITE

Your simulation uses code contributions which should be cited:
- @article{cjiang2012
The log file lists these citations in BibTeX format.

CITE-CITE-CITE-CITE-CITE-CITE-CITE-CITE-CITE-CITE-CITE-CITE-CITE

All restart file global fix info was re-assigned
Unused restart file peratom fix info:
  fix style: STORE, fix ID: spatialbins_COMPUTE_STORE
Neighbor list info ...
  update every 1 steps, delay 10 steps, check yes
  max neighbors/atom: 2000, page size: 100000
  master list distance cutoff = 8.28721
  ghost atom cutoff = 8.28721
  binsize = 4.143605, bins = 25 25 149
  3 neighbor lists, perpetual/occasional/extra = 3 0 0
  (1) pair eam/alloy, perpetual, skip from (3)
      attributes: half, newton on
      pair build: skip
      stencil: none
      bin: none
  (2) pair edip/multi, perpetual
      attributes: full, newton on
      pair build: full/bin/atomonly
      stencil: full/bin/3d
      bin: standard
  (3) neighbor class addition, perpetual, half/full from (2)
      attributes: half, newton on
      pair build: halffull/newton
      stencil: none
      bin: none
Setting up Verlet run ...
  Unit style    : metal
  Current step  : 11000170
  Time step     : 0.0001
Per MPI rank memory allocation (min/avg/max) = 4.711 | 11.95 | 17.65 Mbytes
Step Time Temp PotEng E_pair TotEng Press Volume Lx Ly Lz CPULeft 
11000170            0    299.76931   -1917372.3   -1917372.3   -1900323.1   -59.373632    6430392.4    102.28924    102.28155      614.625            0 
11010000        0.983    300.04968   -1917372.1   -1917372.1   -1900306.9   -38.575065    6429730.7    102.28927    102.27099      614.625    25810.728 
11020000        1.983    300.38335   -1917359.2   -1917359.2     -1900275    78.492584    6429490.3    102.28367    102.27277      614.625     25595.01 
11030000        2.983    299.80196   -1917371.8   -1917371.8   -1900320.7    -199.1221    6428997.5    102.27953    102.26907      614.625    25339.481 
11040000        3.983    299.95994     -1917343     -1917343   -1900282.9   -236.18954    6428619.5    102.28146    102.26113      614.625    25078.428 
11050000        4.983     299.8808   -1917352.6   -1917352.6     -1900297   -131.41424    6428600.3    102.27259    102.26969      614.625    24841.334 
11060000        5.983    299.73747   -1917345.8   -1917345.8   -1900298.4    188.63992    6428350.7    102.27628    102.26203      614.625    24599.009 
11070000        6.983    300.10916   -1917350.5   -1917350.5   -1900281.9    128.28722    6427351.8    102.25659    102.26583      614.625    24360.421 
11080000        7.983    299.97351   -1917371.5   -1917371.5   -1900310.7    347.06291    6428506.3    102.27594    102.26485      614.625    24111.662 
11090000        8.983    299.94727   -1917376.1   -1917376.1   -1900316.7   -11.212456    6428428.8    102.27021    102.26934      614.625    23863.524 
11100000        9.983    300.08289   -1917346.5   -1917346.5   -1900279.4   -29.895316    6428428.1    102.26102    102.27852      614.625    23610.595 
11110000       10.983    299.90089   -1917357.3   -1917357.3   -1900300.6     12.38441    6427842.4    102.26056    102.26966      614.625    23364.767 
11120000       11.983    299.96287   -1917365.2   -1917365.2   -1900304.9   -187.71985    6428557.8    102.27182    102.26979      614.625     23110.76 
11130000       12.983    300.29678   -1917364.9   -1917364.9   -1900285.7    12.603247    6428402.4    102.27297    102.26616      614.625    22853.694 
11140000       13.983    299.71634   -1917377.8   -1917377.8   -1900331.6   -165.51356      6428603    102.27305    102.26928      614.625    22605.356 
11150000       14.983    300.31509     -1917356     -1917356   -1900275.7    126.91425    6428938.6    102.27574    102.27192      614.625    22345.149 
11160000       15.983    299.73764   -1917377.7   -1917377.7   -1900330.3   -298.92843    6428677.6    102.28135    102.26216      614.625    22085.148 
11170000       16.983    299.70471   -1917359.4   -1917359.4   -1900313.8   -139.56065    6429823.6     102.2873    102.27444      614.625    21823.457 
11180000       17.983    300.16302   -1917341.7   -1917341.7   -1900270.1   -158.67606    6429978.8    102.28733    102.27689      614.625    21560.213 
11190000       18.983    300.10803   -1917397.7   -1917397.7   -1900329.2    20.212982    6429546.1    102.28052    102.27681      614.625    21301.383 
11200000       19.983    300.26124   -1917378.6   -1917378.6   -1900301.4    560.64057    6429457.1    102.28188    102.27404      614.625    21041.884 
11210000       20.983    300.01569   -1917366.5   -1917366.5   -1900303.2    129.05704    6430028.1    102.28407    102.28092      614.625    20781.136 
11220000       21.983    299.87345     -1917369     -1917369   -1900313.8    85.227976    6429324.5    102.28423    102.26957      614.625    20520.468 
11230000       22.983     299.7461   -1917345.8   -1917345.8   -1900297.9    -309.6754    6430283.9    102.28262    102.28644      614.625    20256.806 
11240000       23.983    300.11698   -1917385.1   -1917385.1     -1900316    92.669981    6429636.9    102.28444    102.27434      614.625    19994.024 
11250000       24.983     300.0869   -1917340.3   -1917340.3     -1900273    114.47145    6429571.4    102.28198    102.27575      614.625    19732.329 
11260000       25.983    300.06995   -1917343.5   -1917343.5   -1900277.2    525.04256      6428892    102.27385    102.27307      614.625    19467.931 
11270000       26.983     299.8717   -1917400.3   -1917400.3   -1900345.3   -158.36491    6429368.8     102.2793     102.2752      614.625    19208.379 
11280000       27.983    299.81552   -1917384.1   -1917384.1   -1900332.2    206.74088    6428657.3    102.27648    102.26671      614.625    18945.655 
11290000       28.983    300.09439   -1917326.4   -1917326.4   -1900258.7    1.0534046    6429490.1    102.27929    102.27715      614.625    18683.735 
11300000       29.983    300.18576   -1917380.7   -1917380.7   -1900307.7   -42.381452    6429775.7    102.29096    102.27003      614.625    18422.045 
11310000       30.983    300.17823   -1917336.2   -1917336.2   -1900263.7    71.642371      6429228    102.28172    102.27055      614.625     18159.25 
11320000       31.983    300.08015   -1917335.4   -1917335.4   -1900268.5    253.34672      6429610    102.28081    102.27753      614.625    17898.229 
11330000       32.983    300.11644   -1917380.5   -1917380.5   -1900311.5    -44.01488    6427991.1    102.26811    102.26448      614.625    17634.941 
11340000       33.983    300.02802   -1917357.5   -1917357.5   -1900293.5    49.265735    6428668.2    102.27658    102.26678      614.625    17370.236 
11350000       34.983    299.84342   -1917362.3   -1917362.3   -1900308.9    27.619802    6428430.6    102.27076    102.26882      614.625    17106.536 
11360000       35.983    299.96248   -1917370.2   -1917370.2     -1900310   -164.74528      6428272    102.27062    102.26644      614.625    16845.865 
11370000       36.983     300.2247   -1917357.4   -1917357.4   -1900282.2   -66.641986    6428178.5    102.26424    102.27133      614.625     16583.38 
11380000       37.983    299.99953   -1917338.8   -1917338.8   -1900276.4    111.37747    6428245.7    102.27143    102.26521      614.625    16321.297 
11390000       38.983    299.97891   -1917377.4   -1917377.4   -1900316.3   -53.999639    6428156.5    102.26599    102.26923      614.625    16060.395 
11400000       39.983    299.90473   -1917342.7   -1917342.7   -1900285.7   -187.35832    6429074.5    102.27656    102.27327      614.625    15798.199 
11410000       40.983    299.78635   -1917345.4   -1917345.4   -1900295.2   -45.465728    6429092.7    102.28548    102.26464      614.625    15535.043 
11420000       41.983    299.99371   -1917371.2   -1917371.2   -1900309.1   -100.54225    6428331.7    102.27108    102.26693      614.625    15273.448 
11430000       42.983    299.91682   -1917387.3   -1917387.3   -1900329.7   -183.61327    6428736.2    102.27138    102.27306      614.625    15011.048 
11440000       43.983     299.8664   -1917354.4   -1917354.4   -1900299.6    152.90439    6428141.2    102.26791    102.26706      614.625    14748.266 
11450000       44.983    300.22619   -1917394.8   -1917394.8   -1900319.5    218.83205    6428506.9    102.27164    102.26916      614.625    14484.869 
11460000       45.983    299.95849   -1917388.8   -1917388.8   -1900328.7    158.93692    6429656.3    102.28031    102.27877      614.625    14221.822 
11470000       46.983    300.13276   -1917365.9   -1917365.9   -1900295.9    186.74516    6428618.9    102.28116    102.26142      614.625    13958.866 
11480000       47.983     300.2262     -1917343     -1917343   -1900267.8    273.41506    6428897.5    102.27508    102.27193      614.625    13697.302 
11490000       48.983    300.10923   -1917367.1   -1917367.1   -1900298.5    238.14757    6429173.5    102.27874    102.27267      614.625    13435.667 
11500000       49.983    300.14086   -1917350.7   -1917350.7   -1900280.3    342.85999      6428200    102.26832    102.26759      614.625    13173.018 
11510000       50.983    300.15803   -1917352.9   -1917352.9   -1900281.5   -226.69816    6429977.5    102.28656    102.27763      614.625    12910.394 
11520000       51.983    300.27944   -1917347.3   -1917347.3     -1900269    22.946955    6429310.7     102.2812    102.27238      614.625    12646.699 
11530000       52.983    299.89267   -1917367.2   -1917367.2   -1900310.9    206.56039    6429220.1    102.27729    102.27485      614.625    12383.354 
11540000       53.983     299.9644   -1917346.7   -1917346.7   -1900286.4    67.104747    6430311.6    102.28834    102.28117      614.625     12120.02 
11550000       54.983    299.83476   -1917370.4   -1917370.4   -1900317.4     86.23582    6429304.6    102.27486    102.27863      614.625    11855.913 
11560000       55.983    300.04091   -1917352.3   -1917352.3   -1900287.5   -82.453962    6428995.4    102.28378    102.26479      614.625    11593.198 
11570000       56.983    300.41667   -1917359.2   -1917359.2   -1900273.2    186.21442      6428437    102.27404    102.26565      614.625    11329.404 
11580000       57.983    299.82624   -1917368.5   -1917368.5     -1900316    -199.9405    6428672.5    102.28022    102.26321      614.625    11066.406 
11590000       58.983    300.05129   -1917324.6   -1917324.6   -1900259.3    193.49298    6428671.6    102.27945    102.26397      614.625    10803.708 
11600000       59.983    299.88599     -1917385     -1917385   -1900329.1    227.81801    6428797.6    102.27322     102.2722      614.625    10540.078 
11610000       60.983    299.83802   -1917337.8   -1917337.8   -1900284.6   -165.27806    6429403.2    102.27334    102.28172      614.625    10277.068 
11620000       61.983    300.19482   -1917335.2   -1917335.2   -1900261.8    407.56864    6428260.8    102.26939    102.26749      614.625    10013.607 
11630000       62.983    300.00509     -1917369     -1917369   -1900306.3   -194.55281    6428656.7    102.27241    102.27077      614.625    9750.4001 
11640000       63.983     300.0564   -1917364.9   -1917364.9   -1900299.3   -131.78114    6428152.6    102.27011    102.26505      614.625    9487.4975 
11650000       64.983    299.78468   -1917377.6   -1917377.6   -1900327.5   -62.648573    6428847.5    102.27813    102.26808      614.625    9223.7472 
11660000       65.983     299.7847   -1917371.5   -1917371.5   -1900321.4   -16.942402    6428120.3    102.27556    102.25908      614.625    8960.2932 
11670000       66.983    299.92098   -1917317.6   -1917317.6   -1900259.7    34.363004    6428304.5    102.26564    102.27193      614.625    8696.7764 
11680000       67.983    299.91829     -1917394     -1917394   -1900336.3   -172.59985    6427631.8    102.26307    102.26381      614.625    8433.3356 
11690000       68.983    299.93359     -1917380     -1917380   -1900321.4   -22.620946    6428783.8    102.27745    102.26775      614.625    8169.7243 
11700000       69.983    299.83484   -1917359.7   -1917359.7   -1900306.7    59.400495    6428292.6    102.27353    102.26385      614.625    7906.7413 
11710000       70.983    299.75764     -1917376     -1917376   -1900327.4   -332.82475      6429369    102.28859    102.26592      614.625     7643.655 
11720000       71.983    300.08121   -1917365.7   -1917365.7   -1900298.7    399.62482    6428727.9    102.27712    102.26719      614.625    7380.4673 
11730000       72.983    299.71423   -1917370.1   -1917370.1   -1900323.9    33.144035    6429202.4    102.27099    102.28087      614.625    7117.0348 
11740000       73.983    299.95562   -1917346.9   -1917346.9     -1900287    -215.7462    6428966.2    102.27776    102.27034      614.625    6853.5348 
11750000       74.983    299.72878   -1917381.8   -1917381.8   -1900334.8   -79.496978    6429595.4    102.28611    102.27201      614.625    6590.0134 
11760000       75.983     299.9932   -1917381.9   -1917381.9   -1900319.9    75.538623    6429164.1    102.26996    102.28129      614.625    6326.6104 
11770000       76.983     300.1478   -1917367.1   -1917367.1   -1900296.3    106.50032    6428948.2     102.2798    102.26802      614.625    6063.2089 
11780000       77.983    299.83268   -1917350.2   -1917350.2   -1900297.3   -20.388236    6428387.1    102.27595    102.26294      614.625      5799.63 
11790000       78.983     300.2859   -1917358.7   -1917358.7     -1900280    52.809032    6429751.8    102.28904    102.27156      614.625    5536.5981 
11800000       79.983    299.88602   -1917329.8   -1917329.8   -1900273.9   -90.838536    6429237.3    102.28705    102.26536      614.625    5273.5441 
11810000       80.983    300.01734   -1917379.9   -1917379.9   -1900316.6   -343.25504    6429273.3    102.28072    102.27227      614.625    5010.0498 
11820000       81.983    300.08699   -1917381.1   -1917381.1   -1900313.7   -170.43699    6429357.8     102.2824    102.27194      614.625    4746.5833 
11830000       82.983    300.16829   -1917366.6   -1917366.6   -1900294.6   -327.54856    6429448.1    102.28747     102.2683      614.625    4483.2207 
11840000       83.983    300.06126   -1917362.1   -1917362.1   -1900296.2   -31.050737    6429210.2    102.27668     102.2753      614.625    4219.7269 
11850000       84.983     300.0274   -1917360.5   -1917360.5   -1900296.6    269.91063    6428126.9    102.26986    102.26489      614.625    3956.1473 
11860000       85.983    299.75524   -1917354.6   -1917354.6   -1900306.1    167.94062    6427857.6    102.26673    102.26374      614.625    3692.5589 
11870000       86.983    299.75871   -1917368.9   -1917368.9   -1900320.2    3.3922473    6428661.4    102.27719    102.26607      614.625    3429.1084 
11880000       87.983    299.87406   -1917403.6   -1917403.6   -1900348.4    -293.4448    6428353.2    102.27036      102.268      614.625    3165.6993 
11890000       88.983     300.1964   -1917350.7   -1917350.7   -1900277.2   -71.290603    6429059.1    102.28069    102.26889      614.625    2902.2896 
11900000       89.983    299.92498   -1917351.3   -1917351.3   -1900293.1   -14.823808    6427357.8    102.26526    102.25726      614.625      2638.97 
11910000       90.983    299.77913   -1917351.3   -1917351.3   -1900301.5   -176.95178    6428077.9    102.26953    102.26444      614.625    2375.5001 
11920000       91.983    300.05849   -1917365.8   -1917365.8   -1900300.1    -53.71065    6428944.7    102.27772    102.27004      614.625    2111.9859 
11930000       92.983     300.1993   -1917377.1   -1917377.1   -1900303.3    60.824527    6428903.6     102.2733    102.27381      614.625    1848.5071 
11940000       93.983    299.93099   -1917373.9   -1917373.9   -1900315.5    208.37838    6428954.5    102.27997    102.26794      614.625    1585.0496 
11950000       94.983    299.86494   -1917327.2   -1917327.2   -1900272.5   -127.62994    6428653.2    102.27711    102.26601      614.625    1321.5907 
11960000       95.983    300.25048   -1917360.8   -1917360.8   -1900284.1   -404.59316    6428898.6    102.28627    102.26075      614.625    1058.1657 
11970000       96.983    299.97585   -1917336.4   -1917336.4   -1900275.4   -184.16168    6428814.5    102.27566    102.27003      614.625    794.73406 
11980000       97.983    299.92888     -1917351     -1917351   -1900292.7     81.05552    6429119.1    102.27441    102.27613      614.625    531.34004 
11990000       98.983    299.99759   -1917362.6   -1917362.6   -1900300.4    73.964141    6429435.5    102.27785    102.27772      614.625    267.91623 
12000000       99.983    299.97244   -1917396.4   -1917396.4   -1900335.6   -12.719184    6428489.4    102.27214    102.26837      614.625    4.4784799 
12000170          100    300.05553   -1917374.8   -1917374.8   -1900309.3    191.53728    6428968.2    102.28076    102.26738      614.625            0 
Loop time of 26344 on 96 procs for 1000000 steps with 440002 atoms

Performance: 0.328 ns/day, 73.178 hours/ns, 37.959 timesteps/s
100.0% CPU use with 96 MPI tasks x 1 OpenMP threads

MPI task timing breakdown:
Section |  min time  |  avg time  |  max time  |%varavg| %total
---------------------------------------------------------------
Pair    | 2.4856     | 19641      | 25289      |4580.8 | 74.56
Neigh   | 0.0057651  | 25.816     | 38.73      | 229.0 |  0.10
Comm    | 1.1685     | 2630       | 8028       |4751.2 |  9.98
Output  | 1.9728     | 1.9744     | 1.9775     |   0.1 |  0.01
Modify  | 521.14     | 3965       | 26229      |11175.6 | 15.05
Other   |            | 80.41      |            |       |  0.31

Nlocal:        4583.35 ave        6294 max           0 min
Histogram: 12 0 0 0 0 8 4 20 20 32
Nghost:        8261.11 ave       11112 max           0 min
Histogram: 12 0 0 0 0 12 0 0 42 30
Neighs:         0.00000 ave           0 max           0 min
Histogram: 96 0 0 0 0 0 0 0 0 0
FullNghs:      874339.0 ave 1.34154e+06 max           0 min
Histogram: 12 0 0 12 0 12 12 12 12 24

Total # of neighbors = 83936582
Ave neighs/atom = 190.76409
Neighbor list builds = 1075
Dangerous builds = 0
System init for write_restart ...
System init for write_data ...
Total wall time: 7:19:05
