LAMMPS (29 Sep 2021)
  using 1 OpenMP thread(s) per MPI task
Reading restart file ...
  restart file = 29 Sep 2021, LAMMPS = 29 Sep 2021
  restoring atom style atomic from restart
  orthogonal box = (0.59336280 0.60103215 0.0000000) to (99.926728 99.919058 535.86400)
  3 by 2 by 16 MPI processor grid
  pair style hybrid/overlay stores no restart info
  444900 atoms
  read_restart CPU = 0.178 seconds
Resetting global fix info from restart file:
  fix style: npt, fix ID: 2

CITE-CITE-CITE-CITE-CITE-CITE-CITE-CITE-CITE-CITE-CITE-CITE-CITE

Your simulation uses code contributions which should be cited:
- @article{cjiang2012
The log file lists these citations in BibTeX format.

CITE-CITE-CITE-CITE-CITE-CITE-CITE-CITE-CITE-CITE-CITE-CITE-CITE

All restart file global fix info was re-assigned
Unused restart file peratom fix info:
  fix style: STORE, fix ID: spatialbins_COMPUTE_STORE
Neighbor list info ...
  update every 1 steps, delay 10 steps, check yes
  max neighbors/atom: 2000, page size: 100000
  master list distance cutoff = 8.28721
  ghost atom cutoff = 8.28721
  binsize = 4.143605, bins = 24 24 130
  3 neighbor lists, perpetual/occasional/extra = 3 0 0
  (1) pair eam/alloy, perpetual, skip from (3)
      attributes: half, newton on
      pair build: skip
      stencil: none
      bin: none
  (2) pair edip/multi, perpetual
      attributes: full, newton on
      pair build: full/bin/atomonly
      stencil: full/bin/3d
      bin: standard
  (3) neighbor class addition, perpetual, half/full from (2)
      attributes: half, newton on
      pair build: halffull/newton
      stencil: none
      bin: none
Setting up Verlet run ...
  Unit style    : metal
  Current step  : 11001201
  Time step     : 0.00025
Per MPI rank memory allocation (min/avg/max) = 9.035 | 11.24 | 15.12 Mbytes
Step Time Temp PotEng E_pair TotEng Press Volume Lx Ly Lz CPULeft 
11001201            0    299.75033     -2213643     -2213643     -2196405    31.732041    5286616.5    99.333365    99.318026      535.864            0 
11010000      2.19975    300.13262   -2213664.4   -2213664.4   -2196404.5   -78.569203    5285845.5    99.327917    99.308989      535.864    77571.403 
11020000      4.69975    300.08746   -2213646.4   -2213646.4     -2196389    20.856337    5285756.1    99.318047    99.317178      535.864    76857.566 
11030000      7.19975    300.04925   -2213642.8   -2213642.8   -2196387.7     82.30434    5285973.3    99.317461    99.321845      535.864    76058.129 
11040000      9.69975    300.22249   -2213639.5   -2213639.5   -2196374.4    -387.2239    5285179.8    99.312842    99.311553      535.864    75283.078 
11050000     12.19975    299.75447     -2213646     -2213646   -2196407.9      36.6219    5286084.9    99.328275    99.313127      535.864    74509.635 
11060000     14.69975    299.86726   -2213668.4   -2213668.4   -2196423.7    665.74946      5285902     99.32597    99.311996      535.864    73723.166 
11070000     17.19975    300.07975   -2213684.5   -2213684.5   -2196427.6    163.84546    5286133.1    99.327854    99.314454      535.864    72948.374 
11080000     19.69975    300.04355     -2213658     -2213658   -2196403.2    46.552544    5286281.7    99.334738    99.310364      535.864    72178.076 
11090000     22.19975    300.15889   -2213658.9   -2213658.9   -2196397.5   -291.70164    5286288.7    99.327262    99.317969      535.864    71398.671 
11100000     24.69975    300.19512   -2213658.5   -2213658.5     -2196395    506.62276    5285801.1     99.32763    99.308442      535.864    70623.559 
11110000     27.19975    299.61795   -2213637.5   -2213637.5   -2196407.2     264.5156    5285750.4    99.323256    99.311861      535.864     69841.45 
11120000     29.69975    299.42329   -2213669.1   -2213669.1   -2196449.9   -107.37638    5285871.4    99.321381    99.316009      535.864    69058.531 
11130000     32.19975    300.28161   -2213675.4   -2213675.4   -2196406.8    72.307348    5285891.7    99.323273    99.314499      535.864    68275.602 
11140000     34.69975    299.81266   -2213638.4   -2213638.4   -2196396.8    426.42965    5286255.5    99.331379     99.31323      535.864    67492.012 
11150000     37.19975    299.90107   -2213629.1   -2213629.1   -2196382.5    189.37864    5286239.9    99.323786    99.320529      535.864     66710.68 
11160000     39.69975    299.79135   -2213665.6   -2213665.6   -2196425.3    226.21874    5286123.1    99.325088    99.317032      535.864    65929.542 
11170000     42.19975    300.62442   -2213660.3   -2213660.3     -2196372   -282.49221    5286609.7    99.336842    99.314421      535.864    65147.755 
11180000     44.69975    300.09619   -2213668.5   -2213668.5   -2196410.6    563.12109    5285549.1    99.321152    99.310183      535.864    64363.287 
11190000     47.19975    299.51761   -2213645.5   -2213645.5   -2196420.9    223.39552    5285828.3    99.329436    99.307145      535.864    63580.435 
11200000     49.69975    300.41116   -2213666.9   -2213666.9   -2196390.9   -20.487113    5286195.1    99.322462    99.321011      535.864    62794.561 
11210000     52.19975     300.2091   -2213671.6   -2213671.6   -2196407.2     199.1218    5286140.9    99.328873    99.313583      535.864    62008.293 
11220000     54.69975    300.05627     -2213686     -2213686   -2196430.5    34.092953    5285451.1    99.323084    99.306408      535.864    61220.693 
11230000     57.19975    299.92696   -2213647.2   -2213647.2   -2196399.1    -138.3356    5286096.2    99.325484     99.31613      535.864    60432.538 
11240000     59.69975    299.96185   -2213665.5   -2213665.5   -2196415.4   -323.47737    5285987.8    99.327831    99.311747      535.864    59646.067 
11250000     62.19975    299.97534   -2213658.3   -2213658.3   -2196407.4    47.640705    5286213.1     99.32899    99.314821      535.864    58862.103 
11260000     64.69975    299.78687   -2213663.5   -2213663.5   -2196423.4   -189.56265    5286211.7    99.321357    99.322427      535.864    58078.056 
11270000     67.19975    300.09218     -2213661     -2213661   -2196403.4   -172.35341    5286032.7    99.322746    99.317675      535.864    57293.121 
11280000     69.69975    300.15801   -2213655.1   -2213655.1   -2196393.7    186.98245    5286002.9    99.315902     99.32396      535.864    56508.086 
11290000     72.19975    300.52032   -2213700.8   -2213700.8   -2196418.6   -390.15626    5285925.8    99.318155    99.320258      535.864    55723.698 
11300000     74.69975    300.25163   -2213687.9   -2213687.9   -2196421.1    312.74946    5286034.3    99.326346    99.314106      535.864    54939.418 
11310000     77.19975    299.92439   -2213653.8   -2213653.8   -2196405.8   -134.09579    5285921.8    99.324013    99.314326      535.864    54154.362 
11320000     79.69975    300.19044   -2213665.3   -2213665.3     -2196402   -664.91011    5286219.3    99.331909    99.312019      535.864    53371.149 
11330000     82.19975    300.17425   -2213657.5   -2213657.5   -2196395.2   -74.008521    5286247.1    99.327864    99.316587      535.864      52587.3 
11340000     84.69975     299.6191   -2213663.6   -2213663.6   -2196433.2    514.08474    5285798.1    99.328296    99.307718      535.864    51804.543 
11350000     87.19975    300.23446     -2213658     -2213658   -2196392.2     44.25728    5286691.9    99.332086    99.320722      535.864    51021.856 
11360000     89.69975    299.91453   -2213672.7   -2213672.7   -2196425.3    417.07184    5286185.9    99.329851     99.31345      535.864    50238.116 
11370000     92.19975     299.7414   -2213669.4   -2213669.4   -2196431.9    169.60341    5285382.1    99.325358    99.302839      535.864    49454.651 
11380000     94.69975    299.67924     -2213672     -2213672   -2196438.2    235.02859    5285759.3    99.327465     99.30782      535.864    48671.545 
11390000     97.19975      299.789   -2213643.9   -2213643.9   -2196403.7   -295.21629    5286088.9    99.326659    99.314818      535.864    47887.632 
11400000     99.69975    300.18599   -2213692.5   -2213692.5   -2196429.5   -299.10911    5286100.4    99.328437    99.313257      535.864    47103.596 
11410000    102.19975    300.40597   -2213682.2   -2213682.2   -2196406.6   -137.02212    5286397.5    99.333689    99.313588      535.864    46319.329 
11420000    104.69975    300.05914   -2213660.5   -2213660.5   -2196404.8    199.69372    5285535.4    99.320828    99.310251      535.864    45534.847 
11430000    107.19975    299.77332   -2213648.4   -2213648.4   -2196409.1   -595.49006      5286578    99.327416    99.323251      535.864    44751.165 
11440000    109.69975    299.67071   -2213691.2   -2213691.2   -2196457.8    64.801696    5286261.1    99.332056    99.312658      535.864     43967.14 
11450000    112.19975     299.6248   -2213652.2   -2213652.2   -2196421.4    410.45455    5286277.7    99.330244    99.314781      535.864    43184.498 
11460000    114.69975    300.26103   -2213678.4   -2213678.4   -2196411.1    600.76944    5285590.3    99.323651    99.308459      535.864    42400.762 
11470000    117.19975    299.90065   -2213693.9   -2213693.9   -2196447.3  -0.62479084    5286005.9    99.328326    99.311593      535.864    41617.155 
11480000    119.69975    300.39574     -2213692     -2213692   -2196416.9    520.14876    5285419.7    99.324299    99.304605      535.864    40833.467 
11490000    122.19975    300.46921   -2213700.8   -2213700.8   -2196421.5   -190.73655    5286053.7    99.328548     99.31227      535.864    40050.335 
11500000    124.69975    299.58091   -2213654.6   -2213654.6   -2196426.4   -309.44969    5286213.4    99.332041    99.311777      535.864    39266.741 
11510000    127.19975    299.93376   -2213692.8   -2213692.8   -2196444.3    47.067992    5286227.9    99.324056    99.320033      535.864    38483.237 
11520000    129.69975    300.01645   -2213682.4   -2213682.4   -2196429.2   -503.61578    5286314.3    99.329616    99.316097      535.864     37699.56 
11530000    132.19975    299.86474   -2213700.4   -2213700.4   -2196455.8   -379.20065    5285941.3     99.32481    99.313894      535.864    36916.533 
11540000    134.69975    299.81644   -2213687.8   -2213687.8   -2196446.1    224.57633    5285697.8    99.321016    99.313113      535.864     36133.16 
11550000    137.19975    299.64292   -2213697.8   -2213697.8     -2196466   -185.55976    5285511.9    99.319876     99.31076      535.864    35349.638 
11560000    139.69975    299.97026   -2213700.9   -2213700.9   -2196450.3    18.982579    5286287.1    99.333026    99.312176      535.864    34566.456 
11570000    142.19975    300.27812   -2213721.8   -2213721.8   -2196453.4   -744.10664    5286334.7    99.327557    99.318539      535.864    33783.292 
11580000    144.69975    299.50279   -2213697.3   -2213697.3   -2196473.6   -282.67697    5285868.8    99.332161    99.305183      535.864    32999.623 
11590000    147.19975    300.50749   -2213706.1   -2213706.1   -2196424.6   -175.95227    5286264.6    99.323196    99.321582      535.864    32215.876 
11600000    149.69975    300.27091   -2213701.2   -2213701.2   -2196433.3    667.49761    5285612.2     99.32277    99.309752      535.864    31432.172 
11610000    152.19975    300.01302   -2213708.4   -2213708.4   -2196455.3   -137.18442    5285900.3     99.32554    99.312394      535.864    30648.777 
11620000    154.69975    300.17302   -2213681.7   -2213681.7   -2196419.5    -264.0981    5286720.4    99.332904    99.320438      535.864    29864.888 
11630000    157.19975    300.08639   -2213665.7   -2213665.7   -2196408.4   -344.55964    5286200.1    99.324975    99.318592      535.864    29081.309 
11640000    159.69975    299.87358   -2213694.9   -2213694.9   -2196449.9    668.07498    5285521.6    99.320281    99.310536      535.864     28297.94 
11650000    162.19975    300.05622   -2213703.9   -2213703.9   -2196448.3    -724.1168    5285863.3    99.319279    99.317959      535.864    27514.432 
11660000    164.69975     299.8417   -2213683.3   -2213683.3   -2196440.1   -407.79713    5286097.1     99.32119    99.320442      535.864    26731.492 
11670000    167.19975    300.58266   -2213722.2   -2213722.2   -2196436.3    77.353212    5286720.5    99.330356    99.322989      535.864    25948.205 
11680000    169.69975    300.29369   -2213716.3   -2213716.3   -2196447.1   -8.4160016    5286361.6    99.333539    99.313063      535.864    25164.944 
11690000    172.19975    299.95647   -2213710.6   -2213710.6   -2196460.8     27.65812    5286343.1    99.326403     99.31985      535.864     24381.86 
11700000    174.69975    299.80669   -2213710.4   -2213710.4   -2196469.2    64.665368    5285679.5    99.320246     99.31354      535.864    23598.703 
11710000    177.19975    299.88236   -2213688.1   -2213688.1   -2196442.5     471.8851    5285635.7    99.316167    99.316795      535.864    22815.258 
11720000    179.69975    299.72638   -2213716.1   -2213716.1   -2196479.6    206.50152    5285599.9    99.319336    99.312953      535.864    22031.779 
11730000    182.19975    300.07439   -2213696.8   -2213696.8   -2196440.2    132.25236    5285984.4    99.320217    99.319297      535.864    21248.357 
11740000    184.69975    300.21042   -2213719.7   -2213719.7   -2196455.3   -144.86485    5285775.6    99.327244    99.308348      535.864    20465.118 
11750000    187.19975    299.85301   -2213728.2   -2213728.2   -2196484.3   -136.70951    5285822.1    99.331999    99.304467      535.864    19681.871 
11760000    189.69975    299.60553   -2213692.4   -2213692.4   -2196462.8   -198.52579    5286152.9     99.33033    99.312351      535.864    18898.521 
11770000    192.19975    300.23523   -2213734.7   -2213734.7   -2196468.9      390.457    5285501.6    99.326897    99.303546      535.864    18115.037 
11780000    194.69975    299.70126   -2213696.4   -2213696.4   -2196461.3    49.143498    5285605.9    99.330132    99.302272      535.864    17331.553 
11790000    197.19975    299.46189   -2213699.7   -2213699.7   -2196478.3    233.36073    5285652.7     99.32448    99.308802      535.864    16547.934 
11800000    199.69975    299.54847   -2213690.5   -2213690.5   -2196464.1      339.741    5286146.1    99.331327    99.311226      535.864    15764.294 
11810000    202.19975    300.08655   -2213709.8   -2213709.8   -2196452.5    443.20189      5286230    99.329927    99.314201      535.864    14980.724 
11820000    204.69975    300.42144   -2213733.9   -2213733.9   -2196457.4   -226.42805    5286170.6    99.329274    99.313739      535.864    14197.306 
11830000    207.19975    300.44919   -2213740.6   -2213740.6   -2196462.4   -157.18028      5285876    99.325019    99.312459      535.864    13413.747 
11840000    209.69975    300.70967   -2213765.2   -2213765.2     -2196472    137.77726    5285717.8    99.325814    99.308691      535.864    12630.293 
11850000    212.19975    300.20303   -2213712.1   -2213712.1   -2196448.1    370.19492    5285611.5    99.316631    99.315876      535.864     11846.79 
11860000    214.69975    300.15406   -2213737.5   -2213737.5   -2196476.3   -677.87752    5286409.8    99.333255    99.314252      535.864    11063.467 
11870000    217.19975    300.30563   -2213727.6   -2213727.6   -2196457.7    83.530641    5285542.7    99.323127    99.308089      535.864    10280.079 
11880000    219.69975    299.73095   -2213704.8   -2213704.8     -2196468    384.10133    5286455.1    99.330789    99.317569      535.864    9496.5835 
11890000    222.19975    300.11894   -2213737.4   -2213737.4   -2196478.3   -2.5672156    5286327.1    99.327177    99.318776      535.864    8713.1382 
11900000    224.69975    299.58356   -2213724.8   -2213724.8   -2196496.5    708.65557    5286078.4    99.326859    99.314422      535.864    7929.7428 
11910000    227.19975    300.16775   -2213727.3   -2213727.3   -2196465.3     383.7127    5285774.4    99.328285    99.307285      535.864    7146.2858 
11920000    229.69975    300.21305     -2213710     -2213710   -2196445.5   -66.100038    5286264.7    99.330694    99.314088      535.864     6362.758 
11930000    232.19975     300.1148   -2213710.7   -2213710.7   -2196451.7   -39.419265    5286004.5    99.333337    99.306555      535.864    5579.2596 
11940000    234.69975    299.59733   -2213711.7   -2213711.7   -2196482.6   -793.43377    5285709.2    99.328114     99.30623      535.864    4795.7313 
11950000    237.19975    299.89373   -2213738.2   -2213738.2     -2196492   -48.856817    5285542.4    99.323846    99.307364      535.864    4012.1542 
11960000    239.69975    299.45533   -2213703.9   -2213703.9   -2196482.9   -168.42463    5285785.4    99.322449    99.313326      535.864    3228.5781 
11970000    242.19975     299.7023   -2213717.7   -2213717.7   -2196482.5    -487.7839    5286405.8    99.326644    99.320788      535.864    2444.9724 
11980000    244.69975    299.67685   -2213731.5   -2213731.5   -2196497.8    251.31649    5286289.7    99.322573    99.322676      535.864    1661.3575 
11990000    247.19975    299.87247     -2213732     -2213732     -2196487   -244.75207    5285889.5    99.328278    99.309453      535.864    877.73935 
12000000    249.69975    299.85293   -2213719.2   -2213719.2   -2196475.3   -192.21929    5286643.6    99.336517    99.315383      535.864    94.114058 
12001201          250    299.61257   -2213729.8   -2213729.8   -2196499.8    123.63731    5286062.1    99.327259    99.313715      535.864            0 
Loop time of 78363.3 on 96 procs for 1000000 steps with 444900 atoms

Performance: 0.276 ns/day, 87.070 hours/ns, 12.761 timesteps/s
100.0% CPU use with 96 MPI tasks x 1 OpenMP threads

MPI task timing breakdown:
Section |  min time  |  avg time  |  max time  |%varavg| %total
---------------------------------------------------------------
Pair    | 13304      | 27768      | 77016      |11008.9 | 35.43
Neigh   | 38.102     | 62.558     | 113.92     | 263.3 |  0.08
Comm    | 484.85     | 16064      | 48968      |13688.7 | 20.50
Output  | 2.0206     | 2.023      | 2.0612     |   0.3 |  0.00
Modify  | 548.59     | 34382      | 63132      |13846.2 | 43.88
Other   |            | 84.07      |            |       |  0.11

Nlocal:        4634.38 ave        7064 max        3159 min
Histogram: 12 12 7 27 26 0 0 0 0 12
Nghost:        9207.19 ave       13998 max        5267 min
Histogram: 12 0 0 28 23 21 0 0 0 12
Neighs:         0.00000 ave           0 max           0 min
Histogram: 96 0 0 0 0 0 0 0 0 0
FullNghs:      814951.0 ave 1.07952e+06 max      585484 min
Histogram: 30 18 0 0 0 0 2 15 15 16

Total # of neighbors = 78235296
Ave neighs/atom = 175.84917
Neighbor list builds = 2394
Dangerous builds = 0
System init for write_restart ...
System init for write_data ...
Total wall time: 21:46:04
