LAMMPS (24 Mar 2022)
OMP_NUM_THREADS environment is not set. Defaulting to 1 thread. (src/comm.cpp:98)
  using 1 OpenMP thread(s) per MPI task
# Compute elastic constant tensor for a crystal
#
# Written by Aidan Thompson (Sandia, athomps@sandia.gov)
#
#  This script uses the following three include files.
#
#   init.mod      (must be modified for different crystal structures)
# 	       	  Define units, deformation parameters and initial
#		  configuration of the atoms and simulation cell.
#
#
#   potential.mod    (must be modified for different pair styles)
# 		     Define pair style and other attributes
#		     not stored in restart file
#
#
#   displace.mod    (displace.mod should not need to be modified)
# 		    Perform positive and negative box displacements
# 		    in direction ${dir} and size ${up}.
# 		    It uses the resultant changes
#		    in stress to compute one
# 		    row of the elastic stiffness tensor
#
#		    Inputs variables:
#		    	   dir = the Voigt deformation component
#		    		    (1,2,3,4,5,6)
#		    Global constants:
#       	    	   up = the deformation magnitude (strain units)
#       		   cfac = conversion from LAMMPS pressure units to
#               	   output units for elastic constants
#
#
#  To run this on a different system, it should only be necessary to
#  modify the files init.mod and potential.mod. In order to calculate
#  the elastic constants correctly, care must be taken to specify
#  the correct units in init.mod (units, cfac and cunits). It is also
#  important to verify that the minimization of energy w.r.t atom
#  positions in the deformed cell is fully converged.
#  One indication of this is that the elastic constants are insensitive
#  to the choice of the variable ${up} in init.mod. Another is to check
#  the final max and two-norm forces reported in the log file. If you know
#  that minimization is not required, you can set maxiter = 0.0 in
#  init.mod.
#

include init.mod
# NOTE: This script can be modified for different atomic structures,
# units, etc. See in.elastic for more info.
#

# Define the finite deformation size. Try several values of this
# variable to verify that results do not depend on it.
variable up equal 1.0e-6

# Define the amount of random jiggle for atoms
# This prevents atoms from staying on saddle points
variable atomjiggle equal 1.0e-5

# Uncomment one of these blocks, depending on what units
# you are using in LAMMPS and for output

# metal units, elastic constants in eV/A^3
#units		metal
#variable cfac equal 6.2414e-7
#variable cunits string eV/A^3

# metal units, elastic constants in GPa
units		metal
variable cfac equal 1.0e-4
variable cunits string GPa

# real units, elastic constants in GPa
#units		real
#variable cfac equal 1.01325e-4
#variable cunits string GPa

# Define minimization parameters
variable etol equal 0.0
variable ftol equal 1.0e-10
variable maxiter equal 100
variable maxeval equal 1000
variable dmax equal 1.0e-2

# generate the box and atom positions using a diamond lattice
variable a equal 4.064

boundary	p p p

lattice         fcc $a
lattice         fcc 4.064
Lattice spacing in x,y,z = 4.064 4.064 4.064
region          box prism 0 20.0 0 20.0 0 20.0 0.0 0.0 0.0
create_box	1 box
Created triclinic box = (0 0 0) to (81.28 81.28 81.28) with tilt (0 0 0)
  1 by 1 by 1 MPI processor grid
create_atoms	1 box
Created 32000 atoms
  using lattice units in triclinic box = (0 0 0) to (81.28 81.28 81.28) with tilt (0 0 0)
  create_atoms CPU = 0.005 seconds

# Need to set mass to something, just to satisfy LAMMPS

include potential.mod
# NOTE: This script can be modified for different pair styles
# See in.elastic for more info.

# Choose potential
pair_style eam/alloy
pair_coeff * * Mishin-Ni-Al-2009.eam.alloy Al


# Setup neighbor style
neighbor 1.0 nsq
neigh_modify once no every 1 delay 0 check yes

# Setup minimization style
min_style	     cg
min_modify	     dmax ${dmax} line quadratic
min_modify	     dmax 0.01 line quadratic

# Setup output
thermo		1
thermo_style custom step temp pe press pxx pyy pzz pxy pxz pyz lx ly lz vol
thermo_modify norm no

min_style cg
dump   1 all atom 1 generic.lammpstrj
minimize 0.0 1.0e-6 10000 1000000
Neighbor list info ...
  update every 1 steps, delay 0 steps, check yes
  max neighbors/atom: 2000, page size: 100000
  master list distance cutoff = 7.28721
  ghost atom cutoff = 7.28721
  1 neighbor lists, perpetual/occasional/extra = 1 0 0
  (1) pair eam/alloy, perpetual
      attributes: half, newton on
      pair build: half/nsq/newton
      stencil: none
      bin: none
Per MPI rank memory allocation (min/avg/max) = 23.82 | 23.82 | 23.82 Mbytes
   Step          Temp          PotEng         Press           Pxx            Pyy            Pzz            Pxy            Pxz            Pyz             Lx             Ly             Lz           Volume    
         0   0             -107505.99     -8063.7776     -8063.7776     -8063.7776     -8063.7776      2.5576269e-09 -1.7351953e-09  1.7440739e-10  81.28          81.28          81.28          536971.31    
         1   0             -107505.99     -8063.7776     -8063.7776     -8063.7776     -8063.7776      3.0679772e-09 -1.4234683e-09 -5.2657014e-10  81.28          81.28          81.28          536971.31    
Loop time of 0.242858 on 1 procs for 1 steps with 32000 atoms

98.4% CPU use with 1 MPI tasks x 1 OpenMP threads

Minimization stats:
  Stopping criterion = force tolerance
  Energy initial, next-to-last, final = 
        -107505.994212     -107505.994212     -107505.994212
  Force two-norm initial, final = 8.349861e-12 4.3721895e-12
  Force max component initial, final = 7.2749098e-14 3.9503123e-14
  Final line search alpha, max atom move = 1 3.9503123e-14
  Iterations, force evaluations = 1 2

MPI task timing breakdown:
Section |  min time  |  avg time  |  max time  |%varavg| %total
---------------------------------------------------------------
Pair    | 0.19889    | 0.19889    | 0.19889    |   0.0 | 81.90
Neigh   | 0          | 0          | 0          |   0.0 |  0.00
Comm    | 0.00054724 | 0.00054724 | 0.00054724 |   0.0 |  0.23
Output  | 0          | 0          | 0          |   0.0 |  0.00
Modify  | 0          | 0          | 0          |   0.0 |  0.00
Other   |            | 0.04342    |            |       | 17.88

Nlocal:          32000 ave       32000 max       32000 min
Histogram: 1 0 0 0 0 0 0 0 0 0
Nghost:          19911 ave       19911 max       19911 min
Histogram: 1 0 0 0 0 0 0 0 0 0
Neighs:      1.376e+06 ave   1.376e+06 max   1.376e+06 min
Histogram: 1 0 0 0 0 0 0 0 0 0

Total # of neighbors = 1376000
Ave neighs/atom = 43
Neighbor list builds = 0
Dangerous builds = 0


# Compute initial state
fix 3 all box/relax  aniso 0.0
minimize ${etol} ${ftol} ${maxiter} ${maxeval}
minimize 0 ${ftol} ${maxiter} ${maxeval}
minimize 0 1e-10 ${maxiter} ${maxeval}
minimize 0 1e-10 100 ${maxeval}
minimize 0 1e-10 100 1000
Per MPI rank memory allocation (min/avg/max) = 23.82 | 23.82 | 23.82 Mbytes
   Step          Temp          PotEng         Press           Pxx            Pyy            Pzz            Pxy            Pxz            Pyz             Lx             Ly             Lz           Volume    
         1   0             -107505.99     -8063.7776     -8063.7776     -8063.7776     -8063.7776      3.23484e-09   -1.5485856e-09 -1.76367e-10    81.28          81.28          81.28          536971.31    
         2   0             -107506.79     -7833.1889     -7833.1889     -7833.1889     -7833.1889      1.2742212e-09  1.8644355e-09  4.5536765e-09  81.271872      81.271872      81.271872      536810.24    
         3   0             -107507.57     -7602.2928     -7602.2928     -7602.2928     -7602.2928      2.9003877e-09  4.3378808e-10  7.7774946e-10  81.263744      81.263744      81.263744      536649.19    
         4   0             -107508.32     -7371.2394     -7371.2394     -7371.2394     -7371.2394     -1.148179e-09   2.1364447e-09  2.725608e-09   81.255616      81.255616      81.255616      536488.18    
         5   0             -107509.05     -7140.0102     -7140.0102     -7140.0102     -7140.0102      6.61727e-10    7.6978481e-10  2.5871109e-09  81.247488      81.247488      81.247488      536327.21    
         6   0             -107509.76     -6908.5987     -6908.5987     -6908.5987     -6908.5987      3.2930822e-09 -7.1303881e-10  1.1553157e-09  81.23936       81.23936       81.23936       536166.26    
         7   0             -107510.44     -6677.0407     -6677.0407     -6677.0407     -6677.0407      2.1551502e-09  1.4299792e-09  7.3971248e-10  81.231232      81.231232      81.231232      536005.34    
         8   0             -107511.1      -6445.3109     -6445.3109     -6445.3109     -6445.3109      4.5939027e-09 -2.6751804e-09  3.1425732e-09  81.223104      81.223104      81.223104      535844.46    
         9   0             -107511.73     -6213.3643     -6213.3643     -6213.3643     -6213.3643     -2.7731747e-10 -8.4934762e-10 -4.7683582e-09  81.214976      81.214976      81.214976      535683.61    
        10   0             -107512.34     -5981.0871     -5981.0871     -5981.0871     -5981.0871     -1.1473499e-09  7.1420462e-10  3.0345842e-10  81.206848      81.206848      81.206848      535522.8     
        11   0             -107512.93     -5748.5466     -5748.5466     -5748.5466     -5748.5466      4.586938e-09  -1.8956674e-09  1.1284425e-09  81.19872       81.19872       81.19872       535362.01    
        12   0             -107513.5      -5515.8343     -5515.8343     -5515.8343     -5515.8343      3.0202714e-09  5.3990502e-10  2.9245932e-10  81.190592      81.190592      81.190592      535201.26    
        13   0             -107514.04     -5283.0039     -5283.0039     -5283.0039     -5283.0039      2.1605791e-09 -1.5251544e-09 -4.3290182e-10  81.182464      81.182464      81.182464      535040.54    
        14   0             -107514.56     -5050.0504     -5050.0504     -5050.0504     -5050.0504     -6.1257993e-10  1.126904e-09   3.5532581e-09  81.174336      81.174336      81.174336      534879.85    
        15   0             -107515.05     -4816.9049     -4816.9049     -4816.9049     -4816.9049     -4.3737946e-09  2.0842236e-09  5.1525743e-10  81.166208      81.166208      81.166208      534719.19    
        16   0             -107515.52     -4583.5327     -4583.5327     -4583.5327     -4583.5327     -1.9147847e-09 -1.2332163e-09 -2.8792138e-09  81.15808       81.15808       81.15808       534558.56    
        17   0             -107515.97     -4349.8063     -4349.8063     -4349.8063     -4349.8063      1.7478968e-10 -1.0896785e-09  6.1434701e-10  81.149952      81.149952      81.149952      534397.97    
        18   0             -107516.4      -4115.8585     -4115.8585     -4115.8585     -4115.8585     -1.4458538e-09 -8.167036e-11   3.6329258e-09  81.141824      81.141824      81.141824      534237.41    
        19   0             -107516.8      -3881.7178     -3881.7178     -3881.7178     -3881.7178      8.4689041e-10 -9.0730081e-10 -1.8689663e-09  81.133696      81.133696      81.133696      534076.88    
        20   0             -107517.17     -3647.4006     -3647.4006     -3647.4006     -3647.4006      4.2477718e-10  5.0384025e-10  3.2222509e-09  81.125568      81.125568      81.125568      533916.39    
        21   0             -107517.53     -3412.8981     -3412.8981     -3412.8981     -3412.8981     -2.2492955e-09 -2.2676937e-10 -3.7754139e-10  81.11744       81.11744       81.11744       533755.92    
        22   0             -107517.86     -3178.2137     -3178.2137     -3178.2137     -3178.2137     -2.8309889e-10  2.3405018e-09 -6.8512629e-10  81.109312      81.109312      81.109312      533595.49    
        23   0             -107518.16     -2943.3265     -2943.3265     -2943.3265     -2943.3265     -1.3651007e-09  5.5922236e-11  5.7549341e-10  81.101184      81.101184      81.101184      533435.09    
        24   0             -107518.45     -2708.1623     -2708.1623     -2708.1623     -2708.1623      1.2866064e-09  7.2593342e-10  1.6382434e-09  81.093056      81.093056      81.093056      533274.73    
        25   0             -107518.71     -2472.7155     -2472.7155     -2472.7155     -2472.7155     -7.0178692e-09 -9.7399999e-10 -7.0364976e-09  81.084928      81.084928      81.084928      533114.39    
        26   0             -107518.94     -2237.0176     -2237.0176     -2237.0176     -2237.0176     -1.6232983e-09 -1.2910808e-09 -6.1821542e-09  81.0768        81.0768        81.0768        532954.09    
        27   0             -107519.15     -2001.2456     -2001.2456     -2001.2456     -2001.2456      1.5746681e-09 -2.0982513e-09  1.3865245e-09  81.068672      81.068672      81.068672      532793.82    
        28   0             -107519.34     -1765.2941     -1765.2941     -1765.2941     -1765.2941      4.8104935e-09 -5.8307298e-11 -1.6585128e-09  81.060544      81.060544      81.060544      532633.58    
        29   0             -107519.51     -1529.1076     -1529.1076     -1529.1076     -1529.1076      7.6154793e-09  1.8079678e-09  3.2280074e-09  81.052416      81.052416      81.052416      532473.37    
        30   0             -107519.65     -1292.5974     -1292.5974     -1292.5974     -1292.5974      1.7682406e-09 -1.1326239e-09  2.1047917e-09  81.044288      81.044288      81.044288      532313.2     
        31   0             -107519.76     -1055.8245     -1055.8245     -1055.8245     -1055.8245     -1.3114027e-09  2.446119e-10   3.2689696e-09  81.03616       81.03616       81.03616       532153.06    
        32   0             -107519.86     -818.80978     -818.80978     -818.80978     -818.80978     -1.8448731e-09  3.6922638e-10  2.9551175e-09  81.028032      81.028032      81.028032      531992.94    
        33   0             -107519.93     -581.60709     -581.60709     -581.60709     -581.60709     -2.1896453e-09 -1.1592904e-09  3.3810729e-09  81.019904      81.019904      81.019904      531832.87    
        34   0             -107519.97     -344.21812     -344.21812     -344.21812     -344.21812     -2.6947105e-09 -5.1759749e-10  1.5569444e-10  81.011776      81.011776      81.011776      531672.82    
        35   0             -107520        -106.66181     -106.66181     -106.66181     -106.66181     -2.7505221e-09  7.382802e-11  -1.9275352e-09  81.003648      81.003648      81.003648      531512.81    
        36   0             -107520        -0.0027982687  -0.0027982705  -0.0027982696  -0.0027982662  -1.9098907e-10  4.070682e-11   1.5069381e-09  81             81             81             531441       
        37   0             -107520        -2.0857304e-07 -2.0907492e-07 -2.084987e-07  -2.0814549e-07 -4.0520944e-09 -2.6593514e-09 -7.0178558e-10  81             81             81             531441       
        38   0             -107520        -4.0185164e-10 -6.2407924e-10 -1.8546717e-09  1.273196e-09  -6.13424e-09   -3.7468025e-09 -4.3303535e-09  81             81             81             531441       
        39   0             -107520         3.1496134e-09  1.2411618e-09  4.4392606e-09  3.7684177e-09 -5.6592554e-09 -3.3244602e-09 -4.7993332e-09  81             81             81             531441       
        40   0             -107520         3.483891e-09   7.8161051e-10  5.6077583e-09  4.0623041e-09 -4.9641108e-09 -2.7547569e-09 -5.0253406e-09  81             81             81             531441       
        41   0             -107520        -2.8268154e-09 -2.0767218e-09  2.1505195e-10 -6.6187763e-09 -5.767405e-09  -2.6576462e-09 -6.0494487e-09  81             81             81             531441       
        42   0             -107520         2.0702007e-09  2.9012601e-09  6.8893712e-10  2.6204048e-09 -5.4518281e-09 -1.722936e-09  -4.6303559e-09  81             81             81             531441       
        43   0             -107520        -1.8832532e-09  9.4279959e-10 -1.2410504e-09 -5.3515089e-09 -6.7391128e-09 -2.6819161e-09 -4.7254412e-09  81             81             81             531441       
        44   0             -107520         3.4248041e-09  3.4719672e-09  4.6792038e-09  2.1232414e-09 -6.0837105e-09 -3.9788274e-09 -5.2928101e-09  81             81             81             531441       
        45   0             -107520         3.4595374e-09  1.7825418e-09  5.4963395e-09  3.099731e-09  -6.1915723e-09 -4.292312e-09  -5.0919214e-09  81             81             81             531441       
        46   0             -107520        -1.2262969e-09 -2.4477886e-09 -2.1083723e-09  8.7727031e-10 -7.0426228e-09 -4.3130738e-09 -4.9628014e-09  81             81             81             531441       
        47   0             -107520        -1.9862158e-09 -3.0835161e-09 -2.9226882e-09  4.7556883e-11 -6.7845821e-09 -4.1305057e-09 -4.848949e-09   81             81             81             531441       
        48   0             -107520         1.1522666e-09  1.1837601e-09  2.2907927e-09 -1.7753015e-11 -5.6307519e-09 -3.514694e-09  -5.076697e-09   81             81             81             531441       
        49   0             -107520        -4.2994111e-10 -5.2084775e-10  4.3077558e-10 -1.1997512e-09 -6.5980512e-09 -4.0517924e-09 -5.532896e-09   81             81             81             531441       
        50   0             -107520        -3.8005242e-10 -2.8944046e-12 -2.0393694e-09  9.0210659e-10 -6.4838704e-09 -3.8350181e-09 -5.5922456e-09  81             81             81             531441       
        51   0             -107520         1.2637865e-09  1.0378344e-09  2.1123199e-09  6.4120525e-10 -6.4225826e-09 -2.9810938e-09 -4.1808361e-09  81             81             81             531441       
        52   0             -107520        -6.5529869e-10  1.9555905e-10 -1.0035261e-10 -2.0611025e-09 -6.2323128e-09 -3.1042025e-09 -4.6403365e-09  81             81             81             531441       
        53   0             -107520        -7.9940955e-10 -4.6997492e-10 -4.8580184e-10 -1.4424519e-09 -5.4739897e-09 -3.3960372e-09 -4.0468152e-09  81             81             81             531441       
        54   0             -107520        -2.6033401e-10  1.0889376e-10 -1.1790753e-09  2.8917947e-10 -5.9612977e-09 -3.5094153e-09 -4.4460177e-09  81             81             81             531441       
        55   0             -107520        -3.1034227e-10  3.8536156e-10 -1.9059789e-09  5.8959056e-10 -6.0133224e-09 -3.0072882e-09 -4.6343496e-09  81             81             81             531441       
        56   0             -107520         2.8810831e-09  1.5289456e-09  2.2314309e-09  4.8828729e-09 -6.5289182e-09 -3.1287666e-09 -4.5442267e-09  81             81             81             531441       
        57   0             -107520        -1.7438518e-09 -9.9334455e-10 -3.8258359e-09 -4.1237503e-10 -6.8631617e-09 -3.6666293e-09 -5.5232712e-09  81             81             81             531441       
        58   0             -107520         8.747183e-10  -1.5656395e-09  3.755777e-10   3.8142167e-09 -5.7538879e-09 -4.6703813e-09 -5.7309313e-09  81             81             81             531441       
        59   0             -107520        -2.448795e-09  -3.3572711e-09  2.4701025e-10 -4.2361242e-09 -6.0026554e-09 -3.4893188e-09 -4.3601527e-09  81             81             81             531441       
        60   0             -107520         1.5684918e-09  1.4354067e-09  2.0987333e-09  1.1713354e-09 -5.8468998e-09 -2.6050421e-09 -4.3745416e-09  81             81             81             531441       
        61   0             -107520         2.2681543e-09  1.0194924e-09  2.3807409e-09  3.4042295e-09 -5.8580784e-09 -3.1835806e-09 -4.2677357e-09  81             81             81             531441       
        62   0             -107520        -1.3146933e-09 -1.1675729e-09 -2.7206226e-09 -5.5884302e-11 -5.989816e-09  -3.3650274e-09 -4.6064327e-09  81             81             81             531441       
        63   0             -107520         2.6323338e-09  1.4372805e-10  1.3437657e-09  6.4095077e-09 -5.8870047e-09 -1.8511896e-09 -4.1628042e-09  81             81             81             531441       
        64   0             -107520         3.2812903e-09  1.8454415e-09  1.4016423e-09  6.5967871e-09 -5.9415735e-09 -9.7332818e-10 -4.3927865e-09  81             81             81             531441       
        65   0             -107520        -2.8746617e-09 -3.4302931e-09 -2.2644101e-09 -2.9292819e-09 -5.3903036e-09 -1.517603e-09  -4.3009115e-09  81             81             81             531441       
        66   0             -107520        -3.7990989e-11 -1.819213e-10   9.7086038e-10 -9.0291205e-10 -5.2150149e-09 -4.0878178e-10 -3.7600252e-09  81             81             81             531441       
        67   0             -107520         6.9569287e-10  1.1685187e-09  2.4227071e-09 -1.5041472e-09 -5.0525362e-09 -3.9596365e-10 -4.0353809e-09  81             81             81             531441       
        68   0             -107520        -1.0500822e-12  7.2440348e-10 -1.4359098e-09  7.0835604e-10 -5.7791879e-09 -3.6962154e-10 -3.7949013e-09  81             81             81             531441       
        69   0             -107520        -2.8098371e-09 -2.8867712e-11 -3.0592713e-09 -5.3413722e-09 -5.0705499e-09 -1.7116743e-09 -4.4199097e-09  81             81             81             531441       
        70   0             -107520        -1.430126e-09  -5.4206579e-10 -2.3265113e-10 -3.5156612e-09 -4.8169095e-09 -3.0474181e-09 -4.8381751e-09  81             81             81             531441       
        71   0             -107520         8.3825428e-10  1.5329398e-09  2.095433e-09  -1.1136099e-09 -5.1492155e-09 -2.6356923e-09 -4.3640537e-09  81             81             81             531441       
        72   0             -107520         9.2467472e-10  2.3636753e-10  7.4936037e-10  1.7882963e-09 -4.4070758e-09 -3.1832772e-09 -4.7408311e-09  81             81             81             531441       
        73   0             -107520         4.3070128e-10 -1.1474783e-09 -1.7014494e-09  4.1410315e-09 -5.387027e-09  -2.7595739e-09 -4.187704e-09   81             81             81             531441       
        74   0             -107520         3.9916622e-10 -1.63152e-09   -7.0190143e-10  3.5309201e-09 -5.4187392e-09 -3.2805566e-09 -5.2655814e-09  81             81             81             531441       
        75   0             -107520        -2.8935951e-09 -9.4407198e-10 -2.6942662e-09 -5.0424472e-09 -5.3236595e-09 -3.8994445e-09 -4.6778237e-09  81             81             81             531441       
        76   0             -107520         1.381784e-09   1.947072e-09   1.1634761e-10  2.0819324e-09 -5.8042711e-09 -3.7632453e-09 -5.1500552e-09  81             81             81             531441       
        77   0             -107520         1.5914514e-09  1.1215918e-09  1.3590417e-09  2.2937208e-09 -5.1364529e-09 -4.0350717e-09 -5.9796189e-09  81             81             81             531441       
        78   0             -107520         1.057391e-09   2.909189e-10  -7.8758439e-10  3.6688383e-09 -5.5389969e-09 -3.3314397e-09 -5.7404655e-09  81             81             81             531441       
        79   0             -107520        -3.5130285e-09 -2.2099701e-09 -1.6491272e-09 -6.6799884e-09 -5.8742514e-09 -2.8781886e-09 -4.4694539e-09  81             81             81             531441       
        80   0             -107520         8.0145978e-10  1.6547129e-09  4.3391656e-10  3.1574985e-10 -5.2683177e-09 -3.1682803e-09 -4.7894451e-09  81             81             81             531441       
        81   0             -107520        -1.7822292e-11  3.1583495e-10  2.0050826e-09 -2.3743844e-09 -5.7935671e-09 -2.9997082e-09 -4.284402e-09   81             81             81             531441       
        82   0             -107520         1.1169552e-09 -4.6809661e-10  4.27122e-11    3.7762499e-09 -5.1063572e-09 -4.2144127e-09 -4.9926296e-09  81             81             81             531441       
        83   0             -107520        -3.7112692e-09 -3.1152541e-09 -3.1534671e-09 -4.8650866e-09 -5.4227566e-09 -4.1144935e-09 -4.3209136e-09  81             81             81             531441       
        84   0             -107520         1.571986e-09   4.0349692e-10 -3.0683086e-10  4.6192919e-09 -5.9774176e-09 -3.9646431e-09 -4.7267224e-09  81             81             81             531441       
        85   0             -107520        -2.9422793e-09 -2.1599427e-09  1.1894369e-10 -6.7858388e-09 -5.0051268e-09 -3.0850552e-09 -4.8226436e-09  81             81             81             531441       
        86   0             -107520         1.4680946e-09  1.589751e-09   4.1284344e-09 -1.3139016e-09 -5.1618232e-09 -3.0463727e-09 -4.5405113e-09  81             81             81             531441       
        87   0             -107520         6.0013686e-10 -6.5183267e-10 -3.7112061e-09  6.1634494e-09 -5.1158071e-09 -3.8703341e-09 -5.5067723e-09  81             81             81             531441       
        88   0             -107520        -3.0456989e-09 -2.0289653e-09 -1.979767e-09  -5.1283644e-09 -5.1497481e-09 -2.1563879e-09 -5.1483389e-09  81             81             81             531441       
        89   0             -107520        -2.2149976e-09 -4.355e-10      6.8720317e-11 -6.278213e-09  -5.7753283e-09 -2.1780832e-09 -5.2044874e-09  81             81             81             531441       
        90   0             -107520         4.3903519e-09  2.8050854e-09  5.4536627e-09  4.9123075e-09 -5.787271e-09  -1.9035213e-09 -4.7408003e-09  81             81             81             531441       
        91   0             -107520        -1.2166789e-09 -1.2585286e-09 -4.0303184e-10 -1.9884763e-09 -6.2504992e-09 -1.8561464e-09 -6.0539559e-09  81             81             81             531441       
        92   0             -107520        -5.1530308e-10 -1.5483453e-09 -7.6453216e-10  7.6696818e-10 -4.7162849e-09 -8.8228268e-10 -4.8227776e-09  81             81             81             531441       
        93   0             -107520         1.6126462e-09  6.3373068e-10 -2.0676869e-10  4.4109766e-09 -4.7223237e-09 -9.5898954e-10 -4.2239945e-09  81             81             81             531441       
        94   0             -107520        -4.0762604e-10  2.1261965e-09 -1.3961926e-09 -1.952882e-09  -6.2922447e-09 -4.3024225e-10 -3.3100566e-09  81             81             81             531441       
        95   0             -107520         4.5237652e-10  1.9216992e-09  1.973129e-09  -2.5376986e-09 -6.8014688e-09 -7.814073e-10  -4.027541e-09   81             81             81             531441       
        96   0             -107520         1.3335362e-10  8.0095165e-11  1.4830154e-09 -1.1630497e-09 -5.809715e-09  -1.6242938e-09 -3.5967563e-09  81             81             81             531441       
        97   0             -107520        -2.0630131e-10 -1.3669969e-09 -1.497259e-09   2.245352e-09  -5.2566096e-09 -2.6015606e-09 -4.3617568e-09  81             81             81             531441       
        98   0             -107520         1.681772e-09   1.6650977e-09  4.5351184e-09 -1.1549002e-09 -6.319029e-09  -1.2852265e-09 -4.0148679e-09  81             81             81             531441       
        99   0             -107520        -1.3051176e-09 -2.5681021e-09 -2.3807052e-09  1.0334544e-09 -5.5126284e-09 -2.4604925e-09 -3.7035942e-09  81             81             81             531441       
       100   0             -107520         2.0723786e-09  6.5796405e-10  1.6597854e-09  3.8993864e-09 -4.715274e-09  -1.2174194e-09 -3.1702833e-09  81             81             81             531441       
       101   0             -107520        -1.8344817e-09  1.8999185e-09  9.2354645e-10 -8.3269101e-09 -4.7622069e-09 -1.1367643e-09 -3.0997663e-09  81             81             81             531441       
Loop time of 15.5273 on 1 procs for 100 steps with 32000 atoms

99.6% CPU use with 1 MPI tasks x 1 OpenMP threads

Minimization stats:
  Stopping criterion = max iterations
  Energy initial, next-to-last, final = 
        -107505.994212  -107519.999609449  -107519.999609449
  Force two-norm initial, final = 4681.0135 2.8601536e-09
  Force max component initial, final = 2702.5844 2.7715789e-09
  Final line search alpha, max atom move = 1 2.7715789e-09
  Iterations, force evaluations = 100 166

MPI task timing breakdown:
Section |  min time  |  avg time  |  max time  |%varavg| %total
---------------------------------------------------------------
Pair    | 11.047     | 11.047     | 11.047     |   0.0 | 71.15
Neigh   | 0          | 0          | 0          |   0.0 |  0.00
Comm    | 0.030244   | 0.030244   | 0.030244   |   0.0 |  0.19
Output  | 4.0961     | 4.0961     | 4.0961     |   0.0 | 26.38
Modify  | 0          | 0          | 0          |   0.0 |  0.00
Other   |            | 0.3534     |            |       |  2.28

Nlocal:          32000 ave       32000 max       32000 min
Histogram: 1 0 0 0 0 0 0 0 0 0
Nghost:          19911 ave       19911 max       19911 min
Histogram: 1 0 0 0 0 0 0 0 0 0
Neighs:      1.376e+06 ave   1.376e+06 max   1.376e+06 min
Histogram: 1 0 0 0 0 0 0 0 0 0

Total # of neighbors = 1376000
Ave neighs/atom = 43
Neighbor list builds = 0
Dangerous builds = 0

variable tmp equal pxx
variable pxx0 equal ${tmp}
variable pxx0 equal 1.89991848445364e-09
variable tmp equal pyy
variable pyy0 equal ${tmp}
variable pyy0 equal 9.23546453614318e-10
variable tmp equal pzz
variable pzz0 equal ${tmp}
variable pzz0 equal -8.3269101155505e-09
variable tmp equal pyz
variable pyz0 equal ${tmp}
variable pyz0 equal -3.09976634755932e-09
variable tmp equal pxz
variable pxz0 equal ${tmp}
variable pxz0 equal -1.13676427299513e-09
variable tmp equal pxy
variable pxy0 equal ${tmp}
variable pxy0 equal -4.76220690618976e-09

variable tmp equal lx
variable lx0 equal ${tmp}
variable lx0 equal 81.0000000634526
variable tmp equal ly
variable ly0 equal ${tmp}
variable ly0 equal 81.0000000634526
variable tmp equal lz
variable lz0 equal ${tmp}
variable lz0 equal 81.0000000634532

# These formulas define the derivatives w.r.t. strain components
# Constants uses $, variables use v_
variable d1 equal -(v_pxx1-${pxx0})/(v_delta/v_len0)*${cfac}
variable d1 equal -(v_pxx1-1.89991848445364e-09)/(v_delta/v_len0)*${cfac}
variable d1 equal -(v_pxx1-1.89991848445364e-09)/(v_delta/v_len0)*0.0001
variable d2 equal -(v_pyy1-${pyy0})/(v_delta/v_len0)*${cfac}
variable d2 equal -(v_pyy1-9.23546453614318e-10)/(v_delta/v_len0)*${cfac}
variable d2 equal -(v_pyy1-9.23546453614318e-10)/(v_delta/v_len0)*0.0001
variable d3 equal -(v_pzz1-${pzz0})/(v_delta/v_len0)*${cfac}
variable d3 equal -(v_pzz1--8.3269101155505e-09)/(v_delta/v_len0)*${cfac}
variable d3 equal -(v_pzz1--8.3269101155505e-09)/(v_delta/v_len0)*0.0001
variable d4 equal -(v_pyz1-${pyz0})/(v_delta/v_len0)*${cfac}
variable d4 equal -(v_pyz1--3.09976634755932e-09)/(v_delta/v_len0)*${cfac}
variable d4 equal -(v_pyz1--3.09976634755932e-09)/(v_delta/v_len0)*0.0001
variable d5 equal -(v_pxz1-${pxz0})/(v_delta/v_len0)*${cfac}
variable d5 equal -(v_pxz1--1.13676427299513e-09)/(v_delta/v_len0)*${cfac}
variable d5 equal -(v_pxz1--1.13676427299513e-09)/(v_delta/v_len0)*0.0001
variable d6 equal -(v_pxy1-${pxy0})/(v_delta/v_len0)*${cfac}
variable d6 equal -(v_pxy1--4.76220690618976e-09)/(v_delta/v_len0)*${cfac}
variable d6 equal -(v_pxy1--4.76220690618976e-09)/(v_delta/v_len0)*0.0001

displace_atoms all random ${atomjiggle} ${atomjiggle} ${atomjiggle} 87287 units box
displace_atoms all random 1e-05 ${atomjiggle} ${atomjiggle} 87287 units box
displace_atoms all random 1e-05 1e-05 ${atomjiggle} 87287 units box
displace_atoms all random 1e-05 1e-05 1e-05 87287 units box
Displacing atoms ...

# Write restart
unfix 3
write_restart restart.equil
System init for write_restart ...

# uxx Perturbation

variable dir equal 1
include displace.mod
# NOTE: This script should not need to be
# modified. See in.elastic for more info.
#
# Find which reference length to use

if "${dir} == 1" then    "variable len0 equal ${lx0}"
variable len0 equal ${lx0}
variable len0 equal 81.0000000634526
if "${dir} == 2" then    "variable len0 equal ${ly0}"
if "${dir} == 3" then    "variable len0 equal ${lz0}"
if "${dir} == 4" then    "variable len0 equal ${lz0}"
if "${dir} == 5" then    "variable len0 equal ${lz0}"
if "${dir} == 6" then    "variable len0 equal ${ly0}"

# Reset box and simulation parameters

clear
OMP_NUM_THREADS environment is not set. Defaulting to 1 thread. (src/comm.cpp:98)
  using 1 OpenMP thread(s) per MPI task
box tilt large
read_restart restart.equil
Reading restart file ...
  restart file = 24 Mar 2022, LAMMPS = 24 Mar 2022
  restoring atom style atomic from restart
  triclinic box = (0.13999997 0.13999997 0.13999997) to (81.14 81.14 81.14) with tilt (0 0 0)
  1 by 1 by 1 MPI processor grid
  pair style eam/alloy stores no restart info
  32000 atoms
  read_restart CPU = 0.002 seconds
include potential.mod
# NOTE: This script can be modified for different pair styles
# See in.elastic for more info.

# Choose potential
pair_style eam/alloy
pair_coeff * * Mishin-Ni-Al-2009.eam.alloy Al


# Setup neighbor style
neighbor 1.0 nsq
neigh_modify once no every 1 delay 0 check yes

# Setup minimization style
min_style	     cg
min_modify	     dmax ${dmax} line quadratic
min_modify	     dmax 0.01 line quadratic

# Setup output
thermo		1
thermo_style custom step temp pe press pxx pyy pzz pxy pxz pyz lx ly lz vol
thermo_modify norm no

# Negative deformation

variable delta equal -${up}*${len0}
variable delta equal -1e-06*${len0}
variable delta equal -1e-06*81.0000000634526
variable deltaxy equal -${up}*xy
variable deltaxy equal -1e-06*xy
variable deltaxz equal -${up}*xz
variable deltaxz equal -1e-06*xz
variable deltayz equal -${up}*yz
variable deltayz equal -1e-06*yz
if "${dir} == 1" then    "change_box all x delta 0 ${delta} xy delta ${deltaxy} xz delta ${deltaxz} remap units box"
change_box all x delta 0 ${delta} xy delta ${deltaxy} xz delta ${deltaxz} remap units box
change_box all x delta 0 -8.10000000634526e-05 xy delta ${deltaxy} xz delta ${deltaxz} remap units box
change_box all x delta 0 -8.10000000634526e-05 xy delta -0 xz delta ${deltaxz} remap units box
change_box all x delta 0 -8.10000000634526e-05 xy delta -0 xz delta -0 remap units box
Changing box ...
  triclinic box = (0.13999997 0.13999997 0.13999997) to (81.139919 81.14 81.14) with tilt (0 0 0)
  triclinic box = (0.13999997 0.13999997 0.13999997) to (81.139919 81.14 81.14) with tilt (0 0 0)
  triclinic box = (0.13999997 0.13999997 0.13999997) to (81.139919 81.14 81.14) with tilt (0 0 0)
if "${dir} == 2" then    "change_box all y delta 0 ${delta} yz delta ${deltayz} remap units box"
if "${dir} == 3" then    "change_box all z delta 0 ${delta} remap units box"
if "${dir} == 4" then    "change_box all yz delta ${delta} remap units box"
if "${dir} == 5" then    "change_box all xz delta ${delta} remap units box"
if "${dir} == 6" then    "change_box all xy delta ${delta} remap units box"

# Relax atoms positions

minimize ${etol} ${ftol} ${maxiter} ${maxeval}
minimize 0 ${ftol} ${maxiter} ${maxeval}
minimize 0 1e-10 ${maxiter} ${maxeval}
minimize 0 1e-10 100 ${maxeval}
minimize 0 1e-10 100 1000
Neighbor list info ...
  update every 1 steps, delay 0 steps, check yes
  max neighbors/atom: 2000, page size: 100000
  master list distance cutoff = 7.28721
  ghost atom cutoff = 7.28721
  1 neighbor lists, perpetual/occasional/extra = 1 0 0
  (1) pair eam/alloy, perpetual
      attributes: half, newton on
      pair build: half/nsq/newton
      stencil: none
      bin: none
Per MPI rank memory allocation (min/avg/max) = 21.53 | 21.53 | 21.53 Mbytes
   Step          Temp          PotEng         Press           Pxx            Pyy            Pzz            Pxy            Pxz            Pyz             Lx             Ly             Lz           Volume    
       101   0             -107520         0.78954889     1.13786        0.61539326     0.61539345    -1.8091491e-07  8.6654279e-08  3.1154922e-07  80.999919      81             81             531440.47    
       102   0             -107520         0.78952862     1.1378397      0.61537307     0.61537308     4.2978461e-08 -7.8023114e-09  4.7388289e-09  80.999919      81             81             531440.47    
       103   0             -107520         0.78952532     1.1378364      0.6153698      0.6153698     -5.50565e-09    1.6998396e-09 -1.1241547e-09  80.999919      81             81             531440.47    
       104   0             -107520         0.7895247      1.1378358      0.61536917     0.61536917    -1.0920732e-09 -1.3332101e-09 -3.9022661e-09  80.999919      81             81             531440.47    
       105   0             -107520         0.78952454     1.1378356      0.61536902     0.61536901    -1.0697886e-09 -6.9595503e-11 -7.280437e-10   80.999919      81             81             531440.47    
       106   0             -107520         0.7895245      1.1378356      0.61536897     0.61536897    -5.7653995e-10 -4.0608233e-10 -2.5252845e-10  80.999919      81             81             531440.47    
       107   0             -107520         0.78952448     1.1378355      0.61536895     0.61536895    -4.3565627e-11  4.5347713e-10 -7.6783632e-10  80.999919      81             81             531440.47    
       108   0             -107520         0.78952447     1.1378355      0.61536895     0.61536894    -2.4966713e-10  3.6653849e-11 -2.8493709e-10  80.999919      81             81             531440.47    
       109   0             -107520         0.78952447     1.1378355      0.61536894     0.61536894    -5.8211363e-10  9.4239271e-11  4.0728437e-10  80.999919      81             81             531440.47    
       110   0             -107520         0.78952447     1.1378355      0.61536894     0.61536894     2.0599994e-10  3.9482021e-11  5.2992628e-12  80.999919      81             81             531440.47    
       111   0             -107520         0.78952446     1.1378355      0.61536894     0.61536893     3.7190014e-10  1.2609652e-10 -1.7706479e-10  80.999919      81             81             531440.47    
       112   0             -107520         0.78952446     1.1378355      0.61536894     0.61536893     4.7793898e-11 -1.9576297e-10 -8.918769e-11   80.999919      81             81             531440.47    
       113   0             -107520         0.78952446     1.1378355      0.61536894     0.61536893    -5.974547e-11   3.1954119e-10 -2.0532476e-10  80.999919      81             81             531440.47    
       114   0             -107520         0.78952446     1.1378355      0.61536894     0.61536893     2.2641457e-11 -4.0220504e-10  2.1356661e-10  80.999919      81             81             531440.47    
       115   0             -107520         0.78952446     1.1378355      0.61536894     0.61536893    -1.6799256e-10  1.3316063e-10 -1.8109559e-10  80.999919      81             81             531440.47    
       116   0             -107520         0.78952446     1.1378355      0.61536894     0.61536893     3.4850685e-10 -8.3006487e-12 -1.5216988e-10  80.999919      81             81             531440.47    
       117   0             -107520         0.78952446     1.1378355      0.61536894     0.61536893     2.2902932e-11  3.2609842e-10  1.2219156e-10  80.999919      81             81             531440.47    
       118   0             -107520         0.78952446     1.1378355      0.61536894     0.61536893    -1.2495418e-10 -1.9325385e-10 -3.0863077e-10  80.999919      81             81             531440.47    
       119   0             -107520         0.78952446     1.1378355      0.61536894     0.61536893    -3.8997398e-11  2.5535723e-11 -1.8893048e-10  80.999919      81             81             531440.47    
       120   0             -107520         0.78952446     1.1378355      0.61536894     0.61536893     1.188585e-10   1.7146793e-11  2.4950633e-11  80.999919      81             81             531440.47    
       121   0             -107520         0.78952446     1.1378355      0.61536894     0.61536893     8.3403681e-11 -4.2567471e-11 -3.06455e-10    80.999919      81             81             531440.47    
       122   0             -107520         0.78952446     1.1378355      0.61536894     0.61536893     1.2123735e-10  3.940632e-11  -5.1083957e-11  80.999919      81             81             531440.47    
       123   0             -107520         0.78952446     1.1378355      0.61536894     0.61536893     3.6376092e-10 -5.5364465e-11  3.5493463e-10  80.999919      81             81             531440.47    
       124   0             -107520         0.78952446     1.1378355      0.61536894     0.61536893    -3.9332007e-10 -6.2030291e-11  1.6559786e-10  80.999919      81             81             531440.47    
       125   0             -107520         0.78952446     1.1378355      0.61536894     0.61536893     6.4301038e-11 -3.9435695e-11  2.3225624e-10  80.999919      81             81             531440.47    
       126   0             -107520         0.78952446     1.1378355      0.61536894     0.61536893     2.6547918e-10 -2.010075e-10  -3.3993273e-10  80.999919      81             81             531440.47    
       127   0             -107520         0.78952446     1.1378355      0.61536894     0.61536893     1.6222091e-10  1.9668038e-10 -2.1906799e-10  80.999919      81             81             531440.47    
       128   0             -107520         0.78952446     1.1378355      0.61536894     0.61536893     1.4070475e-10 -3.4971508e-10 -8.9944339e-11  80.999919      81             81             531440.47    
       129   0             -107520         0.78952446     1.1378355      0.61536894     0.61536893     1.4070475e-10 -3.4971508e-10 -8.9944339e-11  80.999919      81             81             531440.47    
Loop time of 2.64121 on 1 procs for 28 steps with 32000 atoms

100.0% CPU use with 1 MPI tasks x 1 OpenMP threads

Minimization stats:
  Stopping criterion = linesearch alpha is zero
  Energy initial, next-to-last, final = 
     -107519.999604018  -107519.999611037  -107519.999611037
  Force two-norm initial, final = 0.0090510876 2.5663388e-06
  Force max component initial, final = 9.254948e-05 3.699584e-08
  Final line search alpha, max atom move = 0.5 1.849792e-08
  Iterations, force evaluations = 28 57

MPI task timing breakdown:
Section |  min time  |  avg time  |  max time  |%varavg| %total
---------------------------------------------------------------
Pair    | 2.5901     | 2.5901     | 2.5901     |   0.0 | 98.06
Neigh   | 0          | 0          | 0          |   0.0 |  0.00
Comm    | 0.007158   | 0.007158   | 0.007158   |   0.0 |  0.27
Output  | 0.0072712  | 0.0072712  | 0.0072712  |   0.0 |  0.28
Modify  | 0          | 0          | 0          |   0.0 |  0.00
Other   |            | 0.03672    |            |       |  1.39

Nlocal:          32000 ave       32000 max       32000 min
Histogram: 1 0 0 0 0 0 0 0 0 0
Nghost:          19911 ave       19911 max       19911 min
Histogram: 1 0 0 0 0 0 0 0 0 0
Neighs:      1.376e+06 ave   1.376e+06 max   1.376e+06 min
Histogram: 1 0 0 0 0 0 0 0 0 0

Total # of neighbors = 1376000
Ave neighs/atom = 43
Neighbor list builds = 0
Dangerous builds = 0

# Obtain new stress tensor

variable tmp equal pxx
variable pxx1 equal ${tmp}
variable pxx1 equal 1.13783552114113
variable tmp equal pyy
variable pyy1 equal ${tmp}
variable pyy1 equal 0.615368935836887
variable tmp equal pzz
variable pzz1 equal ${tmp}
variable pzz1 equal 0.615368931961179
variable tmp equal pxy
variable pxy1 equal ${tmp}
variable pxy1 equal 1.40704747855623e-10
variable tmp equal pxz
variable pxz1 equal ${tmp}
variable pxz1 equal -3.49715075913436e-10
variable tmp equal pyz
variable pyz1 equal ${tmp}
variable pyz1 equal -8.99443387694832e-11

# Compute elastic constant from pressure tensor

variable C1neg equal ${d1}
variable C1neg equal 113.783551924121
variable C2neg equal ${d2}
variable C2neg equal 61.5368934913341
variable C3neg equal ${d3}
variable C3neg equal 61.5368940288089
variable C4neg equal ${d4}
variable C4neg equal 3.00982200878984e-07
variable C5neg equal ${d5}
variable C5neg equal 7.87049197081694e-08
variable C6neg equal ${d6}
variable C6neg equal 4.90291165404538e-07

# Reset box and simulation parameters

clear
OMP_NUM_THREADS environment is not set. Defaulting to 1 thread. (src/comm.cpp:98)
  using 1 OpenMP thread(s) per MPI task
box tilt large
read_restart restart.equil
Reading restart file ...
  restart file = 24 Mar 2022, LAMMPS = 24 Mar 2022
  restoring atom style atomic from restart
  triclinic box = (0.13999997 0.13999997 0.13999997) to (81.14 81.14 81.14) with tilt (0 0 0)
  1 by 1 by 1 MPI processor grid
  pair style eam/alloy stores no restart info
  32000 atoms
  read_restart CPU = 0.001 seconds
include potential.mod
# NOTE: This script can be modified for different pair styles
# See in.elastic for more info.

# Choose potential
pair_style eam/alloy
pair_coeff * * Mishin-Ni-Al-2009.eam.alloy Al


# Setup neighbor style
neighbor 1.0 nsq
neigh_modify once no every 1 delay 0 check yes

# Setup minimization style
min_style	     cg
min_modify	     dmax ${dmax} line quadratic
min_modify	     dmax 0.01 line quadratic

# Setup output
thermo		1
thermo_style custom step temp pe press pxx pyy pzz pxy pxz pyz lx ly lz vol
thermo_modify norm no

# Positive deformation

variable delta equal ${up}*${len0}
variable delta equal 1e-06*${len0}
variable delta equal 1e-06*81.0000000634526
variable deltaxy equal ${up}*xy
variable deltaxy equal 1e-06*xy
variable deltaxz equal ${up}*xz
variable deltaxz equal 1e-06*xz
variable deltayz equal ${up}*yz
variable deltayz equal 1e-06*yz
if "${dir} == 1" then    "change_box all x delta 0 ${delta} xy delta ${deltaxy} xz delta ${deltaxz} remap units box"
change_box all x delta 0 ${delta} xy delta ${deltaxy} xz delta ${deltaxz} remap units box
change_box all x delta 0 8.10000000634526e-05 xy delta ${deltaxy} xz delta ${deltaxz} remap units box
change_box all x delta 0 8.10000000634526e-05 xy delta 0 xz delta ${deltaxz} remap units box
change_box all x delta 0 8.10000000634526e-05 xy delta 0 xz delta 0 remap units box
Changing box ...
  triclinic box = (0.13999997 0.13999997 0.13999997) to (81.140081 81.14 81.14) with tilt (0 0 0)
  triclinic box = (0.13999997 0.13999997 0.13999997) to (81.140081 81.14 81.14) with tilt (0 0 0)
  triclinic box = (0.13999997 0.13999997 0.13999997) to (81.140081 81.14 81.14) with tilt (0 0 0)
if "${dir} == 2" then    "change_box all y delta 0 ${delta} yz delta ${deltayz} remap units box"
if "${dir} == 3" then    "change_box all z delta 0 ${delta} remap units box"
if "${dir} == 4" then    "change_box all yz delta ${delta} remap units box"
if "${dir} == 5" then    "change_box all xz delta ${delta} remap units box"
if "${dir} == 6" then    "change_box all xy delta ${delta} remap units box"

# Relax atoms positions

minimize ${etol} ${ftol} ${maxiter} ${maxeval}
minimize 0 ${ftol} ${maxiter} ${maxeval}
minimize 0 1e-10 ${maxiter} ${maxeval}
minimize 0 1e-10 100 ${maxeval}
minimize 0 1e-10 100 1000
Neighbor list info ...
  update every 1 steps, delay 0 steps, check yes
  max neighbors/atom: 2000, page size: 100000
  master list distance cutoff = 7.28721
  ghost atom cutoff = 7.28721
  1 neighbor lists, perpetual/occasional/extra = 1 0 0
  (1) pair eam/alloy, perpetual
      attributes: half, newton on
      pair build: half/nsq/newton
      stencil: none
      bin: none
Per MPI rank memory allocation (min/avg/max) = 21.53 | 21.53 | 21.53 Mbytes
   Step          Temp          PotEng         Press           Pxx            Pyy            Pzz            Pxy            Pxz            Pyz             Lx             Ly             Lz           Volume    
       101   0             -107520        -0.78949769    -1.1378065     -0.6153434     -0.61534321    -1.8124948e-07  8.6460727e-08  3.1145956e-07  81.000081      81             81             531441.53    
       102   0             -107520        -0.78951796    -1.1378267     -0.61536358    -0.61536358     4.2780253e-08 -7.7367726e-09  4.7587745e-09  81.000081      81             81             531441.53    
       103   0             -107520        -0.78952126    -1.1378301     -0.61536686    -0.61536686    -5.9484631e-09  1.868146e-09  -1.3982368e-09  81.000081      81             81             531441.53    
       104   0             -107520        -0.78952188    -1.1378307     -0.61536748    -0.61536749    -1.1375626e-09 -1.5397907e-09 -3.5462827e-09  81.000081      81             81             531441.53    
       105   0             -107520        -0.78952204    -1.1378308     -0.61536764    -0.61536764    -1.1339465e-09 -3.0289074e-10 -5.6799671e-10  81.000081      81             81             531441.53    
       106   0             -107520        -0.78952209    -1.1378309     -0.61536768    -0.61536769    -2.4105743e-10  3.266411e-10  -3.9986578e-10  81.000081      81             81             531441.53    
       107   0             -107520        -0.7895221     -1.1378309     -0.6153677     -0.6153677     -3.6387786e-10  8.9795761e-11 -3.8335002e-10  81.000081      81             81             531441.53    
       108   0             -107520        -0.78952211    -1.1378309     -0.61536771    -0.61536771     1.2830523e-10 -6.2551039e-11 -1.7188513e-10  81.000081      81             81             531441.53    
       109   0             -107520        -0.78952212    -1.1378309     -0.61536771    -0.61536772    -2.1800456e-10  6.3310893e-11 -3.3282107e-10  81.000081      81             81             531441.53    
       110   0             -107520        -0.78952212    -1.1378309     -0.61536772    -0.61536772    -3.1278605e-11 -7.7893825e-12 -2.3874642e-10  81.000081      81             81             531441.53    
       111   0             -107520        -0.78952212    -1.1378309     -0.61536772    -0.61536772    -1.8496612e-10 -2.5028543e-10 -1.0899574e-10  81.000081      81             81             531441.53    
       112   0             -107520        -0.78952212    -1.1378309     -0.61536772    -0.61536772     1.4073403e-10 -1.0416992e-10 -1.7273282e-10  81.000081      81             81             531441.53    
       113   0             -107520        -0.78952212    -1.1378309     -0.61536772    -0.61536772    -6.4925212e-11 -2.8769155e-10 -2.2546398e-10  81.000081      81             81             531441.53    
       114   0             -107520        -0.78952212    -1.1378309     -0.61536772    -0.61536772     3.5370626e-11  1.2358915e-10 -1.8236193e-10  81.000081      81             81             531441.53    
       115   0             -107520        -0.78952212    -1.1378309     -0.61536772    -0.61536772    -2.0589857e-10 -1.8039467e-10 -2.4450175e-10  81.000081      81             81             531441.53    
       116   0             -107520        -0.78952212    -1.1378309     -0.61536772    -0.61536772    -3.413285e-10   1.890178e-10  -1.9274459e-10  81.000081      81             81             531441.53    
       117   0             -107520        -0.78952212    -1.1378309     -0.61536772    -0.61536772    -1.7294213e-10  3.570202e-11   5.7460538e-10  81.000081      81             81             531441.53    
       118   0             -107520        -0.78952212    -1.1378309     -0.61536772    -0.61536772    -2.927375e-10  -2.6020197e-10  3.6595717e-10  81.000081      81             81             531441.53    
       119   0             -107520        -0.78952212    -1.1378309     -0.61536772    -0.61536772    -3.170978e-10   3.5540422e-11  4.0792402e-11  81.000081      81             81             531441.53    
       120   0             -107520        -0.78952212    -1.1378309     -0.61536772    -0.61536772     1.921816e-10  -2.6421976e-10  5.5957024e-11  81.000081      81             81             531441.53    
       121   0             -107520        -0.78952212    -1.1378309     -0.61536772    -0.61536772    -5.0118454e-10  9.9953179e-11 -1.4149744e-10  81.000081      81             81             531441.53    
       122   0             -107520        -0.78952212    -1.1378309     -0.61536772    -0.61536772     1.1913867e-10 -1.4325598e-10 -7.7527692e-11  81.000081      81             81             531441.53    
       123   0             -107520        -0.78952212    -1.1378309     -0.61536772    -0.61536772     1.7959496e-10  2.0374936e-10 -1.0136826e-10  81.000081      81             81             531441.53    
       124   0             -107520        -0.78952212    -1.1378309     -0.61536772    -0.61536772     9.9634639e-11 -2.1970491e-11 -8.8274221e-11  81.000081      81             81             531441.53    
       125   0             -107520        -0.78952212    -1.1378309     -0.61536772    -0.61536772    -1.0658901e-10  1.2095323e-10 -2.0046474e-10  81.000081      81             81             531441.53    
       126   0             -107520        -0.78952212    -1.1378309     -0.61536772    -0.61536772     9.6742753e-11  1.5728785e-10 -8.9384026e-11  81.000081      81             81             531441.53    
       127   0             -107520        -0.78952212    -1.1378309     -0.61536772    -0.61536772     3.8382447e-11  1.9295649e-10  3.1917861e-10  81.000081      81             81             531441.53    
       128   0             -107520        -0.78952212    -1.1378309     -0.61536772    -0.61536772     8.5054546e-12  1.5246087e-11  1.7651204e-11  81.000081      81             81             531441.53    
       129   0             -107520        -0.78952212    -1.1378309     -0.61536772    -0.61536772    -3.0655688e-10  6.2111472e-11 -1.4268887e-10  81.000081      81             81             531441.53    
       130   0             -107520        -0.78952212    -1.1378309     -0.61536772    -0.61536772     8.8621752e-11  4.4865989e-10 -1.6694983e-10  81.000081      81             81             531441.53    
       131   0             -107520        -0.78952212    -1.1378309     -0.61536772    -0.61536772     1.3784584e-10  5.4573256e-12  2.4982945e-10  81.000081      81             81             531441.53    
       132   0             -107520        -0.78952212    -1.1378309     -0.61536772    -0.61536772     9.6228904e-12 -3.7378641e-10 -6.7405727e-11  81.000081      81             81             531441.53    
       133   0             -107520        -0.78952212    -1.1378309     -0.61536772    -0.61536772    -8.5803538e-11 -7.1132159e-11  5.1601939e-11  81.000081      81             81             531441.53    
       134   0             -107520        -0.78952212    -1.1378309     -0.61536772    -0.61536772     1.3466854e-10 -2.1800848e-10 -2.0162927e-10  81.000081      81             81             531441.53    
       135   0             -107520        -0.78952212    -1.1378309     -0.61536772    -0.61536772    -1.0452016e-10  2.0027691e-10 -1.3646244e-10  81.000081      81             81             531441.53    
       136   0             -107520        -0.78952212    -1.1378309     -0.61536772    -0.61536772    -2.3312186e-10  1.7625905e-11  4.690357e-11   81.000081      81             81             531441.53    
       137   0             -107520        -0.78952212    -1.1378309     -0.61536772    -0.61536772    -3.508373e-11   1.1367609e-10  2.3936479e-10  81.000081      81             81             531441.53    
       138   0             -107520        -0.78952212    -1.1378309     -0.61536772    -0.61536772    -9.5568433e-12  1.4213272e-11 -1.2883551e-10  81.000081      81             81             531441.53    
       139   0             -107520        -0.78952212    -1.1378309     -0.61536772    -0.61536772    -2.2453087e-10  2.9029348e-10  5.424872e-11   81.000081      81             81             531441.53    
       140   0             -107520        -0.78952212    -1.1378309     -0.61536772    -0.61536772    -6.2787275e-11 -1.3114519e-10 -1.2122301e-11  81.000081      81             81             531441.53    
       141   0             -107520        -0.78952212    -1.1378309     -0.61536772    -0.61536772    -8.2936707e-11  8.969475e-11  -3.1745123e-10  81.000081      81             81             531441.53    
       142   0             -107520        -0.78952212    -1.1378309     -0.61536772    -0.61536772    -3.1196931e-11 -3.1263936e-10  3.043556e-10   81.000081      81             81             531441.53    
       143   0             -107520        -0.78952212    -1.1378309     -0.61536772    -0.61536772     8.1371747e-11 -1.4269965e-10  8.6600978e-11  81.000081      81             81             531441.53    
       144   0             -107520        -0.78952212    -1.1378309     -0.61536772    -0.61536772     9.9122731e-11 -3.2186036e-10  2.4949847e-10  81.000081      81             81             531441.53    
       145   0             -107520        -0.78952212    -1.1378309     -0.61536772    -0.61536772    -6.3952407e-10  5.308942e-11   2.0817815e-10  81.000081      81             81             531441.53    
       146   0             -107520        -0.78952212    -1.1378309     -0.61536772    -0.61536772     1.4894561e-10  3.7502182e-10 -1.0138596e-10  81.000081      81             81             531441.53    
       147   0             -107520        -0.78952212    -1.1378309     -0.61536772    -0.61536772     1.8122435e-10  3.1529754e-10 -1.1622395e-10  81.000081      81             81             531441.53    
       148   0             -107520        -0.78952212    -1.1378309     -0.61536772    -0.61536772    -5.3244933e-11 -2.5780953e-10 -2.308339e-10   81.000081      81             81             531441.53    
       149   0             -107520        -0.78952212    -1.1378309     -0.61536772    -0.61536772     4.5002495e-10  1.8863793e-10 -4.2368538e-11  81.000081      81             81             531441.53    
       150   0             -107520        -0.78952212    -1.1378309     -0.61536772    -0.61536772    -3.6081901e-10  1.6572424e-10  1.8487629e-10  81.000081      81             81             531441.53    
       151   0             -107520        -0.78952212    -1.1378309     -0.61536772    -0.61536772    -2.0253268e-10 -2.532388e-10  -1.2996807e-10  81.000081      81             81             531441.53    
       152   0             -107520        -0.78952212    -1.1378309     -0.61536772    -0.61536772    -1.5975705e-10 -3.5281806e-10 -1.7130278e-10  81.000081      81             81             531441.53    
       153   0             -107520        -0.78952212    -1.1378309     -0.61536772    -0.61536772    -3.3353151e-10  4.3276965e-11  1.5453642e-11  81.000081      81             81             531441.53    
       154   0             -107520        -0.78952212    -1.1378309     -0.61536772    -0.61536772    -1.1651528e-10 -6.4786797e-11 -1.1773892e-10  81.000081      81             81             531441.53    
       155   0             -107520        -0.78952212    -1.1378309     -0.61536772    -0.61536772    -2.5273189e-10  7.9877698e-11 -2.3696766e-10  81.000081      81             81             531441.53    
       156   0             -107520        -0.78952212    -1.1378309     -0.61536772    -0.61536772    -8.6369224e-11 -1.8323412e-10  2.6102164e-10  81.000081      81             81             531441.53    
       157   0             -107520        -0.78952212    -1.1378309     -0.61536772    -0.61536772    -5.8731021e-10  6.4605477e-12  1.5733315e-10  81.000081      81             81             531441.53    
       158   0             -107520        -0.78952212    -1.1378309     -0.61536772    -0.61536772     1.0491052e-10 -4.6146193e-11  1.3723917e-11  81.000081      81             81             531441.53    
       159   0             -107520        -0.78952212    -1.1378309     -0.61536772    -0.61536772    -2.3091401e-10 -1.425497e-10   8.4405968e-11  81.000081      81             81             531441.53    
       160   0             -107520        -0.78952212    -1.1378309     -0.61536772    -0.61536772    -2.5225352e-11  1.4784609e-11  6.52513e-11    81.000081      81             81             531441.53    
       161   0             -107520        -0.78952212    -1.1378309     -0.61536772    -0.61536772     1.0331837e-10 -7.4460759e-11  1.6748185e-10  81.000081      81             81             531441.53    
       162   0             -107520        -0.78952212    -1.1378309     -0.61536772    -0.61536772     1.7120526e-10  4.9253718e-10  4.174661e-11   81.000081      81             81             531441.53    
       163   0             -107520        -0.78952212    -1.1378309     -0.61536772    -0.61536772    -2.4283961e-10  9.1858274e-11  2.0134418e-10  81.000081      81             81             531441.53    
       164   0             -107520        -0.78952212    -1.1378309     -0.61536772    -0.61536772    -3.0214682e-10  1.1406455e-10 -2.0510236e-10  81.000081      81             81             531441.53    
       165   0             -107520        -0.78952212    -1.1378309     -0.61536772    -0.61536772     1.0031434e-10  1.8477576e-10 -1.8171348e-10  81.000081      81             81             531441.53    
       166   0             -107520        -0.78952212    -1.1378309     -0.61536772    -0.61536772    -1.8463856e-10  2.6550049e-10 -9.7163794e-11  81.000081      81             81             531441.53    
       167   0             -107520        -0.78952212    -1.1378309     -0.61536772    -0.61536772    -4.2378511e-10 -8.3552459e-11 -3.5548e-12     81.000081      81             81             531441.53    
       168   0             -107520        -0.78952212    -1.1378309     -0.61536772    -0.61536772     7.9639321e-10 -9.048201e-11  -4.3945516e-10  81.000081      81             81             531441.53    
       169   0             -107520        -0.78952212    -1.1378309     -0.61536772    -0.61536772    -2.6099835e-10 -6.6196268e-11  2.9991291e-10  81.000081      81             81             531441.53    
       170   0             -107520        -0.78952212    -1.1378309     -0.61536772    -0.61536772     3.0371714e-10 -3.0212274e-10  3.1053175e-11  81.000081      81             81             531441.53    
       171   0             -107520        -0.78952212    -1.1378309     -0.61536772    -0.61536772    -1.6984255e-10  2.4869599e-10 -6.8788152e-11  81.000081      81             81             531441.53    
       172   0             -107520        -0.78952212    -1.1378309     -0.61536772    -0.61536772    -2.5848278e-11 -6.2789199e-11  1.8317439e-11  81.000081      81             81             531441.53    
       173   0             -107520        -0.78952212    -1.1378309     -0.61536772    -0.61536772     6.5175016e-10  7.9434846e-11  4.7420425e-10  81.000081      81             81             531441.53    
       174   0             -107520        -0.78952212    -1.1378309     -0.61536772    -0.61536772     1.0343186e-11 -1.5619568e-10  1.4603544e-10  81.000081      81             81             531441.53    
       175   0             -107520        -0.78952212    -1.1378309     -0.61536772    -0.61536772     2.7437086e-10 -1.1969484e-11  1.5822406e-11  81.000081      81             81             531441.53    
       176   0             -107520        -0.78952212    -1.1378309     -0.61536772    -0.61536772     5.3528007e-11 -1.3678885e-10 -2.810686e-10   81.000081      81             81             531441.53    
       177   0             -107520        -0.78952212    -1.1378309     -0.61536772    -0.61536772    -3.3677957e-10 -4.2064227e-10  2.8282029e-10  81.000081      81             81             531441.53    
       178   0             -107520        -0.78952212    -1.1378309     -0.61536772    -0.61536772    -9.5755189e-11  1.0593645e-10 -8.0029963e-11  81.000081      81             81             531441.53    
       179   0             -107520        -0.78952212    -1.1378309     -0.61536772    -0.61536772    -1.7367955e-10  2.3173661e-10 -3.2423525e-10  81.000081      81             81             531441.53    
       180   0             -107520        -0.78952212    -1.1378309     -0.61536772    -0.61536772    -2.7311178e-10  2.0287674e-10 -1.7364582e-10  81.000081      81             81             531441.53    
       181   0             -107520        -0.78952212    -1.1378309     -0.61536772    -0.61536772    -2.0752241e-11  3.8808575e-10  7.0904171e-11  81.000081      81             81             531441.53    
       182   0             -107520        -0.78952212    -1.1378309     -0.61536772    -0.61536772     3.2154356e-11  1.3689517e-10 -2.4606291e-10  81.000081      81             81             531441.53    
       183   0             -107520        -0.78952212    -1.1378309     -0.61536772    -0.61536772    -3.7909918e-10 -2.1689373e-10  1.4303864e-10  81.000081      81             81             531441.53    
       184   0             -107520        -0.78952212    -1.1378309     -0.61536772    -0.61536772     2.3850883e-10 -1.4162404e-11 -1.710518e-10   81.000081      81             81             531441.53    
       185   0             -107520        -0.78952212    -1.1378309     -0.61536772    -0.61536772     2.9368912e-11 -9.9993108e-11  8.3970095e-11  81.000081      81             81             531441.53    
       186   0             -107520        -0.78952212    -1.1378309     -0.61536772    -0.61536772     2.6072056e-11 -1.9127151e-10  3.3634977e-10  81.000081      81             81             531441.53    
       187   0             -107520        -0.78952212    -1.1378309     -0.61536772    -0.61536772    -3.6794776e-10 -2.3900397e-10  8.4389441e-11  81.000081      81             81             531441.53    
       188   0             -107520        -0.78952212    -1.1378309     -0.61536772    -0.61536772    -1.2959697e-11  1.0968303e-10  1.7665864e-10  81.000081      81             81             531441.53    
       189   0             -107520        -0.78952212    -1.1378309     -0.61536772    -0.61536772    -6.9517139e-11  1.4936708e-10 -1.9282931e-10  81.000081      81             81             531441.53    
       190   0             -107520        -0.78952212    -1.1378309     -0.61536772    -0.61536772    -4.0056493e-10 -1.0917425e-10  7.9988962e-11  81.000081      81             81             531441.53    
       191   0             -107520        -0.78952212    -1.1378309     -0.61536772    -0.61536772     1.5134875e-10 -5.315478e-11  -1.3737485e-10  81.000081      81             81             531441.53    
       192   0             -107520        -0.78952212    -1.1378309     -0.61536772    -0.61536772     2.3930667e-10 -8.4256034e-11  6.8534946e-11  81.000081      81             81             531441.53    
       193   0             -107520        -0.78952212    -1.1378309     -0.61536772    -0.61536772    -4.4466426e-10  4.4956249e-10 -1.1079701e-10  81.000081      81             81             531441.53    
       194   0             -107520        -0.78952212    -1.1378309     -0.61536772    -0.61536772     2.2069452e-10 -2.3536397e-10 -1.2362926e-10  81.000081      81             81             531441.53    
       195   0             -107520        -0.78952212    -1.1378309     -0.61536772    -0.61536772     1.0316878e-10  2.5550576e-10  2.6153421e-10  81.000081      81             81             531441.53    
       196   0             -107520        -0.78952212    -1.1378309     -0.61536772    -0.61536772    -6.2535767e-10 -2.5307e-10     2.1462348e-10  81.000081      81             81             531441.53    
       197   0             -107520        -0.78952212    -1.1378309     -0.61536772    -0.61536772    -7.298946e-10  -1.8445417e-10 -3.7926973e-11  81.000081      81             81             531441.53    
       198   0             -107520        -0.78952212    -1.1378309     -0.61536772    -0.61536772    -4.1313083e-10 -2.1840042e-10  5.5115834e-10  81.000081      81             81             531441.53    
       199   0             -107520        -0.78952212    -1.1378309     -0.61536772    -0.61536772    -8.8581053e-11 -1.9059265e-11  2.8943247e-10  81.000081      81             81             531441.53    
       200   0             -107520        -0.78952212    -1.1378309     -0.61536772    -0.61536772    -1.3277423e-10 -2.2384821e-10 -2.6075451e-11  81.000081      81             81             531441.53    
       201   0             -107520        -0.78952212    -1.1378309     -0.61536772    -0.61536772     7.5397756e-11  6.1870493e-11  3.67255e-11    81.000081      81             81             531441.53    
Loop time of 9.53725 on 1 procs for 100 steps with 32000 atoms

100.0% CPU use with 1 MPI tasks x 1 OpenMP threads

Minimization stats:
  Stopping criterion = max iterations
  Energy initial, next-to-last, final = 
     -107519.999604016  -107519.999611714  -107519.999611726
  Force two-norm initial, final = 0.0090510608 3.2022903e-09
  Force max component initial, final = 9.2549021e-05 4.687779e-11
  Final line search alpha, max atom move = 1 4.687779e-11
  Iterations, force evaluations = 100 200

MPI task timing breakdown:
Section |  min time  |  avg time  |  max time  |%varavg| %total
---------------------------------------------------------------
Pair    | 9.3511     | 9.3511     | 9.3511     |   0.0 | 98.05
Neigh   | 0          | 0          | 0          |   0.0 |  0.00
Comm    | 0.025838   | 0.025838   | 0.025838   |   0.0 |  0.27
Output  | 0.027972   | 0.027972   | 0.027972   |   0.0 |  0.29
Modify  | 0          | 0          | 0          |   0.0 |  0.00
Other   |            | 0.1323     |            |       |  1.39

Nlocal:          32000 ave       32000 max       32000 min
Histogram: 1 0 0 0 0 0 0 0 0 0
Nghost:          19911 ave       19911 max       19911 min
Histogram: 1 0 0 0 0 0 0 0 0 0
Neighs:      1.376e+06 ave   1.376e+06 max   1.376e+06 min
Histogram: 1 0 0 0 0 0 0 0 0 0

Total # of neighbors = 1376000
Ave neighs/atom = 43
Neighbor list builds = 0
Dangerous builds = 0

# Obtain new stress tensor

variable tmp equal pe
variable e1 equal ${tmp}
variable e1 equal -107519.999611726
variable tmp equal press
variable p1 equal ${tmp}
variable p1 equal -0.789522122010071
variable tmp equal pxx
variable pxx1 equal ${tmp}
variable pxx1 equal -1.13783092308996
variable tmp equal pyy
variable pyy1 equal ${tmp}
variable pyy1 equal -0.615367719901629
variable tmp equal pzz
variable pzz1 equal ${tmp}
variable pzz1 equal -0.615367723038626
variable tmp equal pxy
variable pxy1 equal ${tmp}
variable pxy1 equal 7.53977564615778e-11
variable tmp equal pxz
variable pxz1 equal ${tmp}
variable pxz1 equal 6.18704931080418e-11
variable tmp equal pyz
variable pyz1 equal ${tmp}
variable pyz1 equal 3.67254999191905e-11

# Compute elastic constant from pressure tensor

variable C1pos equal ${d1}
variable C1pos equal 113.783092498988
variable C2pos equal ${d2}
variable C2pos equal 61.5367720825175
variable C3pos equal ${d3}
variable C3pos equal 61.5367714711716
variable C4pos equal ${d4}
variable C4pos equal -3.13649184747851e-07
variable C5pos equal ${d5}
variable C5pos equal -1.19863476610317e-07
variable C6pos equal ${d6}
variable C6pos equal -4.83760466265134e-07

# Combine positive and negative

variable C1${dir} equal 0.5*(${C1neg}+${C1pos})
variable C11 equal 0.5*(${C1neg}+${C1pos})
variable C11 equal 0.5*(113.783551924121+${C1pos})
variable C11 equal 0.5*(113.783551924121+113.783092498988)
variable C2${dir} equal 0.5*(${C2neg}+${C2pos})
variable C21 equal 0.5*(${C2neg}+${C2pos})
variable C21 equal 0.5*(61.5368934913341+${C2pos})
variable C21 equal 0.5*(61.5368934913341+61.5367720825175)
variable C3${dir} equal 0.5*(${C3neg}+${C3pos})
variable C31 equal 0.5*(${C3neg}+${C3pos})
variable C31 equal 0.5*(61.5368940288089+${C3pos})
variable C31 equal 0.5*(61.5368940288089+61.5367714711716)
variable C4${dir} equal 0.5*(${C4neg}+${C4pos})
variable C41 equal 0.5*(${C4neg}+${C4pos})
variable C41 equal 0.5*(3.00982200878984e-07+${C4pos})
variable C41 equal 0.5*(3.00982200878984e-07+-3.13649184747851e-07)
variable C5${dir} equal 0.5*(${C5neg}+${C5pos})
variable C51 equal 0.5*(${C5neg}+${C5pos})
variable C51 equal 0.5*(7.87049197081694e-08+${C5pos})
variable C51 equal 0.5*(7.87049197081694e-08+-1.19863476610317e-07)
variable C6${dir} equal 0.5*(${C6neg}+${C6pos})
variable C61 equal 0.5*(${C6neg}+${C6pos})
variable C61 equal 0.5*(4.90291165404538e-07+${C6pos})
variable C61 equal 0.5*(4.90291165404538e-07+-4.83760466265134e-07)

# Delete dir to make sure it is not reused

variable dir delete

# uyy Perturbation

variable dir equal 2
include displace.mod
# NOTE: This script should not need to be
# modified. See in.elastic for more info.
#
# Find which reference length to use

if "${dir} == 1" then    "variable len0 equal ${lx0}"
if "${dir} == 2" then    "variable len0 equal ${ly0}"
variable len0 equal ${ly0}
variable len0 equal 81.0000000634526
if "${dir} == 3" then    "variable len0 equal ${lz0}"
if "${dir} == 4" then    "variable len0 equal ${lz0}"
if "${dir} == 5" then    "variable len0 equal ${lz0}"
if "${dir} == 6" then    "variable len0 equal ${ly0}"

# Reset box and simulation parameters

clear
OMP_NUM_THREADS environment is not set. Defaulting to 1 thread. (src/comm.cpp:98)
  using 1 OpenMP thread(s) per MPI task
box tilt large
read_restart restart.equil
Reading restart file ...
  restart file = 24 Mar 2022, LAMMPS = 24 Mar 2022
  restoring atom style atomic from restart
  triclinic box = (0.13999997 0.13999997 0.13999997) to (81.14 81.14 81.14) with tilt (0 0 0)
  1 by 1 by 1 MPI processor grid
  pair style eam/alloy stores no restart info
  32000 atoms
  read_restart CPU = 0.001 seconds
include potential.mod
# NOTE: This script can be modified for different pair styles
# See in.elastic for more info.

# Choose potential
pair_style eam/alloy
pair_coeff * * Mishin-Ni-Al-2009.eam.alloy Al


# Setup neighbor style
neighbor 1.0 nsq
neigh_modify once no every 1 delay 0 check yes

# Setup minimization style
min_style	     cg
min_modify	     dmax ${dmax} line quadratic
min_modify	     dmax 0.01 line quadratic

# Setup output
thermo		1
thermo_style custom step temp pe press pxx pyy pzz pxy pxz pyz lx ly lz vol
thermo_modify norm no

# Negative deformation

variable delta equal -${up}*${len0}
variable delta equal -1e-06*${len0}
variable delta equal -1e-06*81.0000000634526
variable deltaxy equal -${up}*xy
variable deltaxy equal -1e-06*xy
variable deltaxz equal -${up}*xz
variable deltaxz equal -1e-06*xz
variable deltayz equal -${up}*yz
variable deltayz equal -1e-06*yz
if "${dir} == 1" then    "change_box all x delta 0 ${delta} xy delta ${deltaxy} xz delta ${deltaxz} remap units box"
if "${dir} == 2" then    "change_box all y delta 0 ${delta} yz delta ${deltayz} remap units box"
change_box all y delta 0 ${delta} yz delta ${deltayz} remap units box
change_box all y delta 0 -8.10000000634526e-05 yz delta ${deltayz} remap units box
change_box all y delta 0 -8.10000000634526e-05 yz delta -0 remap units box
Changing box ...
  triclinic box = (0.13999997 0.13999997 0.13999997) to (81.14 81.139919 81.14) with tilt (0 0 0)
  triclinic box = (0.13999997 0.13999997 0.13999997) to (81.14 81.139919 81.14) with tilt (0 0 0)
if "${dir} == 3" then    "change_box all z delta 0 ${delta} remap units box"
if "${dir} == 4" then    "change_box all yz delta ${delta} remap units box"
if "${dir} == 5" then    "change_box all xz delta ${delta} remap units box"
if "${dir} == 6" then    "change_box all xy delta ${delta} remap units box"

# Relax atoms positions

minimize ${etol} ${ftol} ${maxiter} ${maxeval}
minimize 0 ${ftol} ${maxiter} ${maxeval}
minimize 0 1e-10 ${maxiter} ${maxeval}
minimize 0 1e-10 100 ${maxeval}
minimize 0 1e-10 100 1000
Neighbor list info ...
  update every 1 steps, delay 0 steps, check yes
  max neighbors/atom: 2000, page size: 100000
  master list distance cutoff = 7.28721
  ghost atom cutoff = 7.28721
  1 neighbor lists, perpetual/occasional/extra = 1 0 0
  (1) pair eam/alloy, perpetual
      attributes: half, newton on
      pair build: half/nsq/newton
      stencil: none
      bin: none
Per MPI rank memory allocation (min/avg/max) = 21.53 | 21.53 | 21.53 Mbytes
   Step          Temp          PotEng         Press           Pxx            Pyy            Pzz            Pxy            Pxz            Pyz             Lx             Ly             Lz           Volume    
       101   0             -107520         0.78954889     0.61539339     1.1378598      0.61539345    -1.8137035e-07  8.6824545e-08  3.1153969e-07  81             80.999919      81             531440.47    
       102   0             -107520         0.78952862     0.61537312     1.1378397      0.61537308     4.2835648e-08 -7.466111e-09   4.8690665e-09  81             80.999919      81             531440.47    
       103   0             -107520         0.78952532     0.61536979     1.1378364      0.6153698     -6.3174296e-09  2.01585e-09   -9.8835854e-10  81             80.999919      81             531440.47    
       104   0             -107520         0.7895247      0.61536917     1.1378358      0.61536917    -1.3102612e-09 -1.5844482e-09 -3.2892952e-09  81             80.999919      81             531440.47    
       105   0             -107520         0.78952454     0.61536902     1.1378356      0.61536901    -9.285037e-10  -3.1850844e-10 -7.9281717e-11  81             80.999919      81             531440.47    
       106   0             -107520         0.7895245      0.61536897     1.1378356      0.61536897    -2.9524409e-10 -8.5654916e-12 -9.1105231e-11  81             80.999919      81             531440.47    
       107   0             -107520         0.78952448     0.61536895     1.1378355      0.61536895    -2.194846e-10   1.1419461e-10 -1.5063592e-10  81             80.999919      81             531440.47    
       108   0             -107520         0.78952447     0.61536895     1.1378355      0.61536894     5.2395065e-11 -2.5965225e-10 -9.0177337e-11  81             80.999919      81             531440.47    
       109   0             -107520         0.78952447     0.61536894     1.1378355      0.61536894    -4.2933232e-10 -8.1745703e-11 -4.3023722e-10  81             80.999919      81             531440.47    
       110   0             -107520         0.78952447     0.61536894     1.1378355      0.61536894     1.3010449e-10  2.7577425e-10 -2.0606484e-10  81             80.999919      81             531440.47    
       111   0             -107520         0.78952446     0.61536894     1.1378355      0.61536893    -3.6367614e-10 -5.5153965e-10 -2.6563419e-10  81             80.999919      81             531440.47    
       112   0             -107520         0.78952446     0.61536894     1.1378355      0.61536893    -4.9841336e-10  2.1696415e-10  2.8917294e-10  81             80.999919      81             531440.47    
       113   0             -107520         0.78952446     0.61536894     1.1378355      0.61536893     1.4766083e-10  4.0186246e-11  8.4951292e-11  81             80.999919      81             531440.47    
       114   0             -107520         0.78952446     0.61536894     1.1378355      0.61536893    -1.3955433e-10  7.4076211e-11  1.1683168e-10  81             80.999919      81             531440.47    
       115   0             -107520         0.78952446     0.61536894     1.1378355      0.61536893    -2.0702027e-10  2.4670443e-11 -1.6349351e-10  81             80.999919      81             531440.47    
[...]
       114   0             -107520         1.8917774e-07 -3.8477851e-08  3.3148644e-07  2.7452464e-07 -0.31598424    -2.1225052e-10  5.0739952e-11  81             81             81             531441       
       115   0             -107520         1.8915468e-07 -3.8724388e-08  3.3119355e-07  2.7499489e-07 -0.31598424    -9.5270584e-11  2.4775272e-10  81             81             81             531441       
       116   0             -107520         1.8893685e-07 -3.8914193e-08  3.3111477e-07  2.7460997e-07 -0.31598424     6.6505737e-11 -2.3718332e-10  81             81             81             531441       
       117   0             -107520         1.8907072e-07 -3.9047078e-08  3.314108e-07   2.7484843e-07 -0.31598424     2.0013903e-10 -3.6732607e-11  81             81             81             531441       
       118   0             -107520         1.8898765e-07 -3.9144343e-08  3.3101532e-07  2.7509199e-07 -0.31598424    -4.2467642e-10 -5.5038266e-11  81             81             81             531441       
       119   0             -107520         1.8860174e-07 -3.9043666e-08  3.3055703e-07  2.7429186e-07 -0.31598424    -9.7422118e-11  1.8609243e-10  81             81             81             531441       
       120   0             -107520         1.8867512e-07 -3.9189096e-08  3.3096822e-07  2.7424624e-07 -0.31598424     2.1346245e-10 -4.9744172e-10  81             81             81             531441       
       121   0             -107520         1.8864842e-07 -3.9185398e-08  3.3074656e-07  2.7438411e-07 -0.31598424    -2.3159235e-11 -2.3477225e-12  81             81             81             531441       
       122   0             -107520         1.8865158e-07 -3.9129883e-08  3.3090197e-07  2.7418265e-07 -0.31598424    -3.3586295e-10 -2.5267476e-10  81             81             81             531441       
       123   0             -107520         1.8867962e-07 -3.917018e-08   3.3087422e-07  2.7433482e-07 -0.31598424     3.2636608e-11  3.1820774e-11  81             81             81             531441       
       124   0             -107520         1.8860183e-07 -3.9233842e-08  3.3093054e-07  2.7410878e-07 -0.31598424    -2.1383361e-10  9.8342103e-12  81             81             81             531441       
       125   0             -107520         1.8879238e-07 -3.9325866e-08  3.30925e-07    2.74778e-07   -0.31598424     6.0819605e-11 -2.0000091e-10  81             81             81             531441       
       126   0             -107520         1.8870431e-07 -3.908558e-08   3.3088147e-07  2.7431705e-07 -0.31598424    -1.1921643e-10 -5.5998823e-10  81             81             81             531441       
       127   0             -107520         1.8856935e-07 -3.9294709e-08  3.3087296e-07  2.741298e-07  -0.31598424    -2.5019073e-10 -2.1050453e-10  81             81             81             531441       
       128   0             -107520         1.885968e-07  -3.9235518e-08  3.3056823e-07  2.7445769e-07 -0.31598424    -4.846328e-10  -7.8681883e-11  81             81             81             531441       
       129   0             -107520         1.8855293e-07 -3.9305653e-08  3.3070218e-07  2.7426225e-07 -0.31598424    -1.5233335e-10  2.0971103e-12  81             81             81             531441       
       130   0             -107520         1.8870115e-07 -3.9347586e-08  3.3097965e-07  2.7447139e-07 -0.31598424     1.7553472e-11  6.8911811e-11  81             81             81             531441       
       131   0             -107520         1.8865167e-07 -3.9318987e-08  3.3077199e-07  2.74502e-07   -0.31598424     3.2495577e-10  3.4091451e-10  81             81             81             531441       
       132   0             -107520         1.8865553e-07 -3.9248749e-08  3.3064816e-07  2.7456718e-07 -0.31598424     2.0171169e-10 -1.1053387e-10  81             81             81             531441       
       133   0             -107520         1.8867295e-07 -3.9231137e-08  3.3087876e-07  2.7437122e-07 -0.31598424     1.4189932e-10  3.3336233e-10  81             81             81             531441       
       134   0             -107520         1.8866024e-07 -3.9368259e-08  3.3078608e-07  2.7456291e-07 -0.31598424    -2.7539161e-10 -1.700827e-10   81             81             81             531441       
       135   0             -107520         1.8862624e-07 -3.9237834e-08  3.3052008e-07  2.7459647e-07 -0.31598424    -1.8925801e-10 -1.3619745e-10  81             81             81             531441       
       136   0             -107520         1.8859035e-07 -3.9278576e-08  3.3049771e-07  2.7455191e-07 -0.31598424    -4.899686e-10   2.0520026e-10  81             81             81             531441       
       137   0             -107520         1.8857716e-07 -3.916221e-08   3.3064153e-07  2.7425215e-07 -0.31598424     6.6095281e-11  4.8982319e-11  81             81             81             531441       
       138   0             -107520         1.8866554e-07 -3.940631e-08   3.3066542e-07  2.7473751e-07 -0.31598424     1.2771982e-10 -1.3098279e-11  81             81             81             531441       
       139   0             -107520         1.8869933e-07 -3.928999e-08   3.3071095e-07  2.7467703e-07 -0.31598424    -1.8310583e-10 -2.4327634e-11  81             81             81             531441       
       140   0             -107520         1.8870078e-07 -3.9260559e-08  3.3093081e-07  2.7443208e-07 -0.31598424     2.6221058e-10  6.7423157e-11  81             81             81             531441       
       141   0             -107520         1.8849679e-07 -3.932922e-08   3.3039119e-07  2.744284e-07  -0.31598424    -6.947823e-12  -1.2860281e-10  81             81             81             531441       
       142   0             -107520         1.8863411e-07 -3.934419e-08   3.310369e-07   2.7420963e-07 -0.31598424    -1.5291088e-10  1.9089711e-11  81             81             81             531441       
       143   0             -107520         1.8858739e-07 -3.9233549e-08  3.3056849e-07  2.7442723e-07 -0.31598424     3.7550637e-10  2.0267798e-11  81             81             81             531441       
       144   0             -107520         1.8865606e-07 -3.928978e-08   3.3087535e-07  2.7438261e-07 -0.31598424    -6.6779e-11     3.0867836e-10  81             81             81             531441       
       145   0             -107520         1.8874423e-07 -3.9402662e-08  3.309281e-07   2.7470724e-07 -0.31598424    -1.7174768e-10  1.3556071e-10  81             81             81             531441       
       146   0             -107520         1.8862112e-07 -3.9177666e-08  3.3049847e-07  2.7454255e-07 -0.31598424    -1.4441425e-10  1.2614714e-10  81             81             81             531441       
       147   0             -107520         1.8871215e-07 -3.9368306e-08  3.3075547e-07  2.7474927e-07 -0.31598424     1.6265618e-10  2.3213355e-10  81             81             81             531441       
       148   0             -107520         1.8845045e-07 -3.9315018e-08  3.3060108e-07  2.740653e-07  -0.31598424    -3.1846599e-11  1.7835704e-10  81             81             81             531441       
       149   0             -107520         1.8860293e-07 -3.9228859e-08  3.308089e-07   2.7422875e-07 -0.31598424     1.4883225e-10  4.2467566e-10  81             81             81             531441       
       150   0             -107520         1.8858433e-07 -3.9347156e-08  3.3080353e-07  2.7429661e-07 -0.31598424    -1.7777649e-10 -9.8114921e-12  81             81             81             531441       
       151   0             -107520         1.8860367e-07 -3.9374419e-08  3.3063868e-07  2.7454676e-07 -0.31598424     5.3627682e-10 -1.0220588e-10  81             81             81             531441       
       152   0             -107520         1.8860367e-07 -3.9374419e-08  3.3063868e-07  2.7454676e-07 -0.31598424     5.3627682e-10 -1.0220588e-10  81             81             81             531441       
Loop time of 4.97851 on 1 procs for 51 steps with 32000 atoms

99.9% CPU use with 1 MPI tasks x 1 OpenMP threads

Minimization stats:
  Stopping criterion = linesearch alpha is zero
  Energy initial, next-to-last, final = 
     -107519.999604153  -107519.999611177  -107519.999611177
  Force two-norm initial, final = 0.0090510743 3.2593976e-07
  Force max component initial, final = 9.2549264e-05 4.8146397e-09
  Final line search alpha, max atom move = 0.5 2.4073198e-09
  Iterations, force evaluations = 51 103

MPI task timing breakdown:
Section |  min time  |  avg time  |  max time  |%varavg| %total
---------------------------------------------------------------
Pair    | 4.8831     | 4.8831     | 4.8831     |   0.0 | 98.08
Neigh   | 0          | 0          | 0          |   0.0 |  0.00
Comm    | 0.0134     | 0.0134     | 0.0134     |   0.0 |  0.27
Output  | 0.013964   | 0.013964   | 0.013964   |   0.0 |  0.28
Modify  | 0          | 0          | 0          |   0.0 |  0.00
Other   |            | 0.06805    |            |       |  1.37

Nlocal:          32000 ave       32000 max       32000 min
Histogram: 1 0 0 0 0 0 0 0 0 0
Nghost:          19911 ave       19911 max       19911 min
Histogram: 1 0 0 0 0 0 0 0 0 0
Neighs:      1.376e+06 ave   1.376e+06 max   1.376e+06 min
Histogram: 1 0 0 0 0 0 0 0 0 0

Total # of neighbors = 1376000
Ave neighs/atom = 43
Neighbor list builds = 0
Dangerous builds = 0

# Obtain new stress tensor

variable tmp equal pe
variable e1 equal ${tmp}
variable e1 equal -107519.999611177
variable tmp equal press
variable p1 equal ${tmp}
variable p1 equal 1.88603674320421e-07
variable tmp equal pxx
variable pxx1 equal ${tmp}
variable pxx1 equal -3.93744189138971e-08
variable tmp equal pyy
variable pyy1 equal ${tmp}
variable pyy1 equal 3.30638682057986e-07
variable tmp equal pzz
variable pzz1 equal ${tmp}
variable pzz1 equal 2.74546759817173e-07
variable tmp equal pxy
variable pxy1 equal ${tmp}
variable pxy1 equal -0.315984236555104
variable tmp equal pxz
variable pxz1 equal ${tmp}
variable pxz1 equal 5.3627682203145e-10
variable tmp equal pyz
variable pyz1 equal ${tmp}
variable pyz1 equal -1.02205883958212e-10

# Compute elastic constant from pressure tensor

variable C1pos equal ${d1}
variable C1pos equal 4.12743373983507e-06
variable C2pos equal ${d2}
variable C2pos equal -3.29715135604372e-05
variable C3pos equal ${d3}
variable C3pos equal -2.82873669932724e-05
variable C4pos equal ${d4}
variable C4pos equal -2.99756046360111e-07
variable C5pos equal ${d5}
variable C5pos equal -1.67304109502658e-07
variable C6pos equal ${d6}
variable C6pos equal 31.5984231792897

# Combine positive and negative

variable C1${dir} equal 0.5*(${C1neg}+${C1pos})
variable C16 equal 0.5*(${C1neg}+${C1pos})
variable C16 equal 0.5*(-4.10118899063309e-06+${C1pos})
variable C16 equal 0.5*(-4.10118899063309e-06+4.12743373983507e-06)
variable C2${dir} equal 0.5*(${C2neg}+${C2pos})
variable C26 equal 0.5*(${C2neg}+${C2pos})
variable C26 equal 0.5*(3.3032609121489e-05+${C2pos})
variable C26 equal 0.5*(3.3032609121489e-05+-3.29715135604372e-05)
variable C3${dir} equal 0.5*(${C3neg}+${C3pos})
variable C36 equal 0.5*(${C3neg}+${C3pos})
variable C36 equal 0.5*(2.83359683662047e-05+${C3pos})
variable C36 equal 0.5*(2.83359683662047e-05+-2.82873669932724e-05)
variable C4${dir} equal 0.5*(${C4neg}+${C4pos})
variable C46 equal 0.5*(${C4neg}+${C4pos})
variable C46 equal 0.5*(3.24803238563094e-07+${C4pos})
variable C46 equal 0.5*(3.24803238563094e-07+-2.99756046360111e-07)
variable C5${dir} equal 0.5*(${C5neg}+${C5pos})
variable C56 equal 0.5*(${C5neg}+${C5pos})
variable C56 equal 0.5*(9.56464558336123e-08+${C5pos})
variable C56 equal 0.5*(9.56464558336123e-08+-1.67304109502658e-07)
variable C6${dir} equal 0.5*(${C6neg}+${C6pos})
variable C66 equal 0.5*(${C6neg}+${C6pos})
variable C66 equal 0.5*(31.5984241431082+${C6pos})
variable C66 equal 0.5*(31.5984241431082+31.5984231792897)

# Delete dir to make sure it is not reused

variable dir delete

# Output final values

variable C11all equal ${C11}
variable C11all equal 113.783322211554
variable C22all equal ${C22}
variable C22all equal 113.783322210494
variable C33all equal ${C33}
variable C33all equal 113.783322178765

variable C12all equal 0.5*(${C12}+${C21})
variable C12all equal 0.5*(61.5368327283249+${C21})
variable C12all equal 0.5*(61.5368327283249+61.5368327869258)
variable C13all equal 0.5*(${C13}+${C31})
variable C13all equal 0.5*(61.5368327213788+${C31})
variable C13all equal 0.5*(61.5368327213788+61.5368327499903)
variable C23all equal 0.5*(${C23}+${C32})
variable C23all equal 0.5*(61.5368327100581+${C32})
variable C23all equal 0.5*(61.5368327100581+61.5368327462029)

variable C44all equal ${C44}
variable C44all equal 31.5984236841176
variable C55all equal ${C55}
variable C55all equal 31.59842367564
variable C66all equal ${C66}
variable C66all equal 31.598423661199

variable C14all equal 0.5*(${C14}+${C41})
variable C14all equal 0.5*(-5.47612931909e-08+${C41})
variable C14all equal 0.5*(-5.47612931909e-08+-6.3334919344335e-09)
variable C15all equal 0.5*(${C15}+${C51})
variable C15all equal 0.5*(1.11387618516502e-09+${C51})
variable C15all equal 0.5*(1.11387618516502e-09+-2.05792784510738e-08)
variable C16all equal 0.5*(${C16}+${C61})
variable C16all equal 0.5*(1.31223746009898e-08+${C61})
variable C16all equal 0.5*(1.31223746009898e-08+3.26534956970199e-09)

variable C24all equal 0.5*(${C24}+${C42})
variable C24all equal 0.5*(-3.58230102446049e-08+${C42})
variable C24all equal 0.5*(-3.58230102446049e-08+2.73854483925099e-09)
variable C25all equal 0.5*(${C25}+${C52})
variable C25all equal 0.5*(3.26609400082009e-08+${C52})
variable C25all equal 0.5*(3.26609400082009e-08+-3.638194805437e-09)
variable C26all equal 0.5*(${C26}+${C62})
variable C26all equal 0.5*(3.05477805259e-08+${C62})
variable C26all equal 0.5*(3.05477805259e-08+1.51260312373915e-08)

variable C34all equal 0.5*(${C34}+${C43})
variable C34all equal 0.5*(-1.087029288683e-07+${C43})
variable C34all equal 0.5*(-1.087029288683e-07+-2.86459965551295e-08)
variable C35all equal 0.5*(${C35}+${C53})
variable C35all equal 0.5*(-3.32622886955078e-09+${C53})
variable C35all equal 0.5*(-3.32622886955078e-09+3.41566355114563e-08)
variable C36all equal 0.5*(${C36}+${C63})
variable C36all equal 0.5*(2.43006864661503e-08+${C63})
variable C36all equal 0.5*(2.43006864661503e-08+5.05374525745152e-09)

variable C45all equal 0.5*(${C45}+${C54})
variable C45all equal 0.5*(-7.76424697033851e-09+${C54})
variable C45all equal 0.5*(-7.76424697033851e-09+2.32378742347547e-08)
variable C46all equal 0.5*(${C46}+${C64})
variable C46all equal 0.5*(1.25235961014915e-08+${C64})
variable C46all equal 0.5*(1.25235961014915e-08+1.62446881158115e-08)
variable C56all equal 0.5*(${C56}+${C65})
variable C56all equal 0.5*(-3.58288268345228e-08+${C65})
variable C56all equal 0.5*(-3.58288268345228e-08+2.8485451878729e-08)

# Average moduli for cubic crystals

variable C11cubic equal (${C11all}+${C22all}+${C33all})/3.0
variable C11cubic equal (113.783322211554+${C22all}+${C33all})/3.0
variable C11cubic equal (113.783322211554+113.783322210494+${C33all})/3.0
variable C11cubic equal (113.783322211554+113.783322210494+113.783322178765)/3.0
variable C12cubic equal (${C12all}+${C13all}+${C23all})/3.0
variable C12cubic equal (61.5368327576253+${C13all}+${C23all})/3.0
variable C12cubic equal (61.5368327576253+61.5368327356846+${C23all})/3.0
variable C12cubic equal (61.5368327576253+61.5368327356846+61.5368327281305)/3.0
variable C44cubic equal (${C44all}+${C55all}+${C66all})/3.0
variable C44cubic equal (31.5984236841176+${C55all}+${C66all})/3.0
variable C44cubic equal (31.5984236841176+31.59842367564+${C66all})/3.0
variable C44cubic equal (31.5984236841176+31.59842367564+31.598423661199)/3.0

variable bulkmodulus equal (${C11cubic}+2*${C12cubic})/3.0
variable bulkmodulus equal (113.783322200271+2*${C12cubic})/3.0
variable bulkmodulus equal (113.783322200271+2*61.5368327404801)/3.0
variable shearmodulus1 equal ${C44cubic}
variable shearmodulus1 equal 31.5984236736522
variable shearmodulus2 equal (${C11cubic}-${C12cubic})/2.0
variable shearmodulus2 equal (113.783322200271-${C12cubic})/2.0
variable shearmodulus2 equal (113.783322200271-61.5368327404801)/2.0
variable poissonratio equal 1.0/(1.0+${C11cubic}/${C12cubic})
variable poissonratio equal 1.0/(1.0+113.783322200271/${C12cubic})
variable poissonratio equal 1.0/(1.0+113.783322200271/61.5368327404801)

# For Stillinger-Weber silicon, the analytical results
# are known to be (E. R. Cowley, 1988):
#               C11 = 151.4 GPa
#               C12 = 76.4 GPa
#               C44 = 56.4 GPa

print "========================================="
=========================================
print "Components of the Elastic Constant Tensor"
Components of the Elastic Constant Tensor
print "========================================="
=========================================

print "Elastic Constant C11all = ${C11all} ${cunits}"
Elastic Constant C11all = 113.783322211554 GPa
print "Elastic Constant C22all = ${C22all} ${cunits}"
Elastic Constant C22all = 113.783322210494 GPa
print "Elastic Constant C33all = ${C33all} ${cunits}"
Elastic Constant C33all = 113.783322178765 GPa

print "Elastic Constant C12all = ${C12all} ${cunits}"
Elastic Constant C12all = 61.5368327576253 GPa
print "Elastic Constant C13all = ${C13all} ${cunits}"
Elastic Constant C13all = 61.5368327356846 GPa
print "Elastic Constant C23all = ${C23all} ${cunits}"
Elastic Constant C23all = 61.5368327281305 GPa

print "Elastic Constant C44all = ${C44all} ${cunits}"
Elastic Constant C44all = 31.5984236841176 GPa
print "Elastic Constant C55all = ${C55all} ${cunits}"
Elastic Constant C55all = 31.59842367564 GPa
print "Elastic Constant C66all = ${C66all} ${cunits}"
Elastic Constant C66all = 31.598423661199 GPa

print "Elastic Constant C14all = ${C14all} ${cunits}"
Elastic Constant C14all = -3.05473925626667e-08 GPa
print "Elastic Constant C15all = ${C15all} ${cunits}"
Elastic Constant C15all = -9.73270113295439e-09 GPa
print "Elastic Constant C16all = ${C16all} ${cunits}"
Elastic Constant C16all = 8.19386208534589e-09 GPa

print "Elastic Constant C24all = ${C24all} ${cunits}"
Elastic Constant C24all = -1.6542232702677e-08 GPa
print "Elastic Constant C25all = ${C25all} ${cunits}"
Elastic Constant C25all = 1.45113726013819e-08 GPa
print "Elastic Constant C26all = ${C26all} ${cunits}"
Elastic Constant C26all = 2.28369058816458e-08 GPa

print "Elastic Constant C34all = ${C34all} ${cunits}"
Elastic Constant C34all = -6.86744627117148e-08 GPa
print "Elastic Constant C35all = ${C35all} ${cunits}"
Elastic Constant C35all = 1.54152033209528e-08 GPa
print "Elastic Constant C36all = ${C36all} ${cunits}"
Elastic Constant C36all = 1.46772158618009e-08 GPa

print "Elastic Constant C45all = ${C45all} ${cunits}"
Elastic Constant C45all = 7.7368136322081e-09 GPa
print "Elastic Constant C46all = ${C46all} ${cunits}"
Elastic Constant C46all = 1.43841421086515e-08 GPa
print "Elastic Constant C56all = ${C56all} ${cunits}"
Elastic Constant C56all = -3.6716874778969e-09 GPa

print "========================================="
=========================================
print "Average properties for a cubic crystal"
Average properties for a cubic crystal
print "========================================="
=========================================

print "Bulk Modulus = ${bulkmodulus} ${cunits}"
Bulk Modulus = 78.9523292270771 GPa
print "Shear Modulus 1 = ${shearmodulus1} ${cunits}"
Shear Modulus 1 = 31.5984236736522 GPa
print "Shear Modulus 2 = ${shearmodulus2} ${cunits}"
Shear Modulus 2 = 26.1232447298955 GPa
print "Poisson Ratio = ${poissonratio}"
Poisson Ratio = 0.350996910545033
Total wall time: 0:02:00
