LAMMPS (29 Sep 2021)
  using 1 OpenMP thread(s) per MPI task
Reading data file ...
  orthogonal box = (0.28991511 0.25259767 0.0000000) to (102.98474 102.52206 526.16902)
  3 by 2 by 16 MPI processor grid
  reading atoms ...
  448248 atoms
  reading velocities ...
  448248 velocities
  read_data CPU = 4.123 seconds
224129 atoms in group g_left
224119 atoms in group g_right

CITE-CITE-CITE-CITE-CITE-CITE-CITE-CITE-CITE-CITE-CITE-CITE-CITE

Your simulation uses code contributions which should be cited:
- @article{cjiang2012
The log file lists these citations in BibTeX format.

CITE-CITE-CITE-CITE-CITE-CITE-CITE-CITE-CITE-CITE-CITE-CITE-CITE

Neighbor list info ...
  update every 1 steps, delay 10 steps, check yes
  max neighbors/atom: 2000, page size: 100000
  master list distance cutoff = 8.28721
  ghost atom cutoff = 8.28721
  binsize = 4.143605, bins = 25 25 127
  3 neighbor lists, perpetual/occasional/extra = 3 0 0
  (1) pair eam/alloy, perpetual, skip from (3)
      attributes: half, newton on
      pair build: skip
      stencil: none
      bin: none
  (2) pair edip/multi, perpetual
      attributes: full, newton on
      pair build: full/bin/atomonly
      stencil: full/bin/3d
      bin: standard
  (3) neighbor class addition, perpetual, half/full from (2)
      attributes: half, newton on
      pair build: halffull/newton
      stencil: none
      bin: none
Setting up Verlet run ...
  Unit style    : metal
  Current step  : 0
  Time step     : 0.00025
Per MPI rank memory allocation (min/avg/max) = 8.748 | 12.74 | 15.04 Mbytes
Step Time Temp Press PotEng KinEng TotEng Volume 
       0            0    2266.0166    21888.557     -2082515    131294.07     -1951221    5526113.8 
     100        0.025    2265.7561     21829.56   -2082505.9    131278.98   -1951226.9    5520862.6 
     200         0.05    2265.7094     21857.31   -2082499.9    131276.27   -1951223.6    5515611.3 
     300        0.075    2265.9323    21824.002     -2082507    131289.19   -1951217.8      5510360 
     400          0.1     2266.083    21982.947   -2082515.4    131297.92   -1951217.4    5505108.7 
     500        0.125    2265.9834     21978.55     -2082512    131292.15   -1951219.8    5499857.5 
     600         0.15     2265.665    21665.677   -2082499.9     131273.7   -1951226.2    5494606.2 
     700        0.175    2265.7379    22046.155   -2082506.5    131277.92   -1951228.6    5489354.9 
     800          0.2    2265.9336    22097.439   -2082516.1    131289.26   -1951226.9    5484103.7 
     900        0.225    2265.8221      22020.8   -2082512.9     131282.8   -1951230.1    5478852.4 
    1000         0.25    2265.4418    22104.827   -2082495.9    131260.77   -1951235.2    5473601.1 
    1100        0.275    2265.7345    22096.418   -2082515.7    131277.73     -1951238    5468349.8 
    1200          0.3    2265.5109    21961.024   -2082505.4    131264.77   -1951240.6    5463098.6 
    1300        0.325     2265.833     22067.57   -2082529.3    131283.43   -1951245.9    5457847.3 
    1400         0.35    2265.1312    22322.302   -2082494.2    131242.77   -1951251.5      5452596 
    1500        0.375    2265.1655    22349.961   -2082495.5    131244.76   -1951250.7    5447344.7 
    1600          0.4    2265.9411    22125.216   -2082533.5     131289.7   -1951243.8    5442093.5 
    1700        0.425    2265.3511    22236.262   -2082496.4    131255.51   -1951240.8    5436842.2 
    1800         0.45    2265.5415    22301.531   -2082510.8    131266.55   -1951244.3    5431590.9 
    1900        0.475    2265.5472    22355.045   -2082509.2    131266.87   -1951242.3    5426339.7 
    2000          0.5    2265.2192    22606.869   -2082484.1    131247.87   -1951236.2    5421088.4 
    2100        0.525    2265.9581    22469.816   -2082526.8    131290.68   -1951236.1    5415837.1 
    2200         0.55    2265.6679    22478.388   -2082516.5    131273.87   -1951242.7    5410585.8 
    2300        0.575    2265.0756    22580.425   -2082490.4    131239.55   -1951250.8    5405334.6 
    2400          0.6    2265.3935     22416.52   -2082511.8    131257.97   -1951253.8    5400083.3 
    2500        0.625    2265.3768     22401.03   -2082510.6       131257   -1951253.6      5394832 
    2600         0.65    2265.1498    22557.772   -2082498.2    131243.85   -1951254.4    5389580.7 
    2700        0.675    2265.2247    22478.063   -2082502.7    131248.19   -1951254.6    5384329.5 
    2800          0.7    2265.4569    22266.023     -2082516    131261.64   -1951254.3    5379078.2 
    2900        0.725    2265.2549    22564.471   -2082502.7    131249.94   -1951252.7    5373826.9 
    3000         0.75    2265.2938    22485.838   -2082506.8    131252.19   -1951254.6    5368575.7 
    3100        0.775    2265.7827    22602.264   -2082538.4    131280.52   -1951257.9    5363324.4 
    3200          0.8    2265.3309    22380.176   -2082514.2    131254.34   -1951259.8    5358073.1 
    3300        0.825    2265.1758    22569.485   -2082501.8    131245.36   -1951256.5    5352821.8 
    3400         0.85    2265.1541    22919.109   -2082498.5     131244.1   -1951254.4    5347570.6 
    3500        0.875      2265.33    22810.298   -2082515.2    131254.29   -1951260.9    5342319.3 
    3600          0.9    2264.8583    22709.203   -2082495.3    131226.96   -1951268.4      5337068 
    3700        0.925    2264.9317    22761.513   -2082499.7    131231.21   -1951268.5    5331816.8 
    3800         0.95    2265.3723    22776.065   -2082520.7    131256.74   -1951263.9    5326565.5 
    3900        0.975    2265.5433    22869.069   -2082531.8    131266.65   -1951265.1    5321314.2 
    4000            1    2266.1908    22713.598   -2082573.8    131304.16   -1951269.6    5316062.9 
    4100        1.025    2267.8573    22693.688   -2082673.9    131400.72   -1951273.1    5310811.7 
    4200         1.05    2271.7951    22484.065     -2082903    131628.88   -1951274.2    5305560.4 
    4300        1.075    2275.1695    22551.273   -2083098.1    131824.39   -1951273.7    5300309.1 
    4400          1.1     2272.976    22696.034   -2082974.2     131697.3   -1951276.9    5295057.8 
    4500        1.125    2269.7626    23512.009   -2082790.3    131511.11   -1951279.2    5289806.6 
    4600         1.15    2266.0917    24718.938   -2082574.4    131298.42     -1951276    5284555.3 
    4700        1.175    2261.3681    25855.798   -2082294.4    131024.74   -1951269.7      5279304 
    4800          1.2    2258.3246    26800.109   -2082119.6    130848.39   -1951271.2    5274052.8 
    4900        1.225     2254.148    27481.181   -2081885.4     130606.4     -1951279    5268801.5 
    5000         1.25    2249.5895    28462.266   -2081624.5    130342.28   -1951282.2    5263550.2 
    5100        1.275    2245.7706    29148.434   -2081405.6    130121.01   -1951284.6    5258298.9 
    5200          1.3    2239.5678    30387.469   -2081044.5    129761.61   -1951282.9    5253047.7 
    5300        1.325    2232.2825    31907.069   -2080621.2     129339.5   -1951281.7    5247796.4 
    5400         1.35    2225.4034    33598.393   -2080219.5    128940.93   -1951278.6    5242545.1 
    5500        1.375    2216.2086    34946.205   -2079678.3    128408.17   -1951270.1    5237293.8 
    5600          1.4    2209.3181    35914.376   -2079272.5    128008.93   -1951263.5    5232042.6 
    5700        1.425    2200.3129    37364.784     -2078750    127487.17   -1951262.8    5226791.3 
    5800         1.45    2191.5808    38820.238   -2078246.5    126981.23   -1951265.2      5221540 
    5900        1.475    2183.3619    40394.523   -2077771.2    126505.02   -1951266.2    5216288.8 
    6000          1.5    2174.3072    41839.966   -2077240.5    125980.39   -1951260.1    5211037.5 
    6100        1.525    2165.2058    43052.392   -2076703.9    125453.04   -1951250.9    5205786.2 
    6200         1.55    2154.7934    44747.342   -2076088.7    124849.75   -1951238.9    5200534.9 
    6300        1.575    2145.7916     45963.38   -2075558.2    124328.18     -1951230    5195283.7 
    6400          1.6    2135.1349    47721.553   -2074940.5    123710.72   -1951229.8    5190032.4 
    6500        1.625    2125.2532    49096.688   -2074371.1    123138.17   -1951232.9    5184781.1 
    6600         1.65    2115.1427    50879.664     -2073786    122552.36   -1951233.7    5179529.8 
    6700        1.675    2103.1475    52562.116   -2073085.8    121857.36   -1951228.5    5174278.6 
    6800          1.7    2092.8585    54214.511   -2072484.5    121261.21   -1951223.3    5169027.3 
    6900        1.725     2081.046    55794.482   -2071799.4    120576.79   -1951222.6      5163776 
    7000         1.75    2069.9762    57319.203   -2071156.1     119935.4   -1951220.7    5158524.8 
    7100        1.775    2057.8327    59255.695   -2070443.1     119231.8   -1951211.3    5153273.5 
    7200          1.8    2046.6698     61185.94   -2069788.6    118585.01   -1951203.6    5148022.2 
    7300        1.825    2035.1484    62995.236   -2069120.9    117917.46   -1951203.5    5142770.9 
    7400         1.85    2023.0674    64949.142   -2068418.4    117217.48   -1951200.9    5137519.7 
    7500        1.875    2010.9405    66705.608     -2067709    116514.84   -1951194.2    5132268.4 
    7600          1.9    1998.9235    68523.446   -2067009.1    115818.57   -1951190.6    5127017.1 
    7700        1.925    1987.1515    70280.733   -2066327.3     115136.5   -1951190.8    5121765.8 
    7800         1.95    1973.5917    72506.694   -2065544.7    114350.84   -1951193.9    5116514.6 
    7900        1.975    1961.8079    74309.015   -2064861.6    113668.08   -1951193.5    5111263.3 
    8000            2    1949.9439    76403.453   -2064166.1    112980.67   -1951185.4      5106012 
    8100        2.025    1937.4354    78517.256   -2063434.6    112255.92   -1951178.7    5100760.8 
    8200         2.05     1924.195    80362.725     -2062663    111488.77   -1951174.2    5095509.5 
    8300        2.075    1912.3403    82537.165   -2061973.1     110801.9   -1951171.2    5090258.2 
    8400          2.1     1899.657    84525.724   -2061239.7    110067.02   -1951172.7    5085006.9 
    8500        2.125    1886.8072     86427.37   -2060498.3     109322.5   -1951175.8    5079755.7 
    8600         2.15    1874.4648     88770.63   -2059784.6    108607.37   -1951177.2    5074504.4 
    8700        2.175    1861.4962    90797.211   -2059035.6    107855.97   -1951179.6    5069253.1 
    8800          2.2    1847.9957    92753.265   -2058254.4    107073.74   -1951180.6    5064001.8 
    8900        2.225    1836.4552    95026.594   -2057584.4    106405.08   -1951179.3    5058750.6 
    9000         2.25     1823.291    97145.691   -2056820.4    105642.34   -1951178.1    5053499.3 
    9100        2.275     1810.691    99254.059   -2056085.5    104912.29   -1951173.2      5048248 
    9200          2.3    1798.6872    101302.65   -2055382.8    104216.79     -1951166    5042996.8 
    9300        2.325    1785.9302    103676.06   -2054641.3    103477.64   -1951163.6    5037745.5 
    9400         2.35    1772.2423     106052.2   -2053854.8    102684.56   -1951170.3    5032494.2 
    9500        2.375    1760.0373    108656.19   -2053155.7    101977.39   -1951178.3    5027242.9 
    9600          2.4    1746.7805    111270.85   -2052392.9    101209.28   -1951183.6    5021991.7 
    9700        2.425    1734.9502    114475.02     -2051712    100523.83   -1951188.2    5016740.4 
    9800         2.45    1723.8356    117836.07   -2051069.6    99879.847   -1951189.7    5011489.1 
    9900        2.475    1712.1985    121091.48   -2050393.4    99205.588   -1951187.8    5006237.9 
   10000          2.5    1699.7329    124146.85   -2049668.9    98483.329   -1951185.6    5000986.6 
   10100        2.525    1688.1565    126698.12   -2048995.3    97812.587   -1951182.7    4995735.3 
   10200         2.55    1675.5373    129491.56   -2048262.7    97081.421   -1951181.3      4990484 
   10300        2.575    1664.3994    131801.18   -2047620.1    96436.087     -1951184    4985232.8 
   10400          2.6     1652.761    134129.96   -2046951.4    95761.754   -1951189.6    4979981.5 
   10500        2.625    1641.3769    136391.75   -2046296.1    95102.155   -1951193.9    4974730.2 
   10600         2.65     1631.312    138508.09   -2045712.3     94518.99   -1951193.3    4969478.9 
   10700        2.675    1619.6885    140904.27   -2045032.9    93845.518   -1951187.4    4964227.7 
   10800          2.7    1608.0376    143207.04   -2044350.7    93170.456   -1951180.2    4958976.4 
   10900        2.725    1596.8038    145320.54   -2043698.1    92519.566   -1951178.5    4953725.1 
   11000         2.75    1584.3812    147646.62   -2042983.3    91799.795   -1951183.5    4948473.9 
   11100        2.775    1573.3043    149845.38   -2042346.5    91157.992   -1951188.5    4943222.6 
   11200          2.8    1561.9635    152255.54   -2041689.8    90500.905   -1951188.9    4937971.3 
   11300        2.825    1550.6171    155137.65   -2041030.7    89843.487   -1951187.2      4932720 
   11400         2.85    1539.4256    157712.08   -2040386.2    89195.046   -1951191.1    4927468.8 
   11500        2.875    1526.6144    160384.88     -2039649    88452.761   -1951196.2    4922217.5 
   11600          2.9    1515.2814    163076.31   -2038991.1    87796.121     -1951195    4916966.2 
   11700        2.925    1503.2514    165796.69   -2038290.9    87099.098   -1951191.8    4911714.9 
   11800         2.95    1491.1805    168504.37   -2037591.6    86399.702   -1951191.9    4906463.7 
   11900        2.975    1479.1975    171230.09     -2036897      85705.4   -1951191.6    4901212.4 
   12000            3     1467.987    173724.59   -2036245.3    85055.859   -1951189.4    4895961.1 
   12100        3.025    1455.6049    176289.65   -2035527.3    84338.438   -1951188.8    4890709.9 
   12200         3.05    1443.6736    178856.25   -2034839.1    83647.132     -1951192    4885458.6 
   12300        3.075    1430.8128    181492.16   -2034098.3    82901.969   -1951196.4    4880207.3 
   12400          3.1    1419.7354    184065.64   -2033458.7     82260.14   -1951198.6      4874956 
   12500        3.125    1406.6225    186544.33   -2032700.2    81500.372   -1951199.8    4869704.8 
   12600         3.15    1394.7244    188920.39   -2032010.6    80810.992   -1951199.6    4864453.5 
   12700        3.175    1382.3684    191292.75   -2031294.4     80095.08   -1951199.3    4859202.2 
   12800          3.2    1370.8089    193697.21   -2030627.1    79425.318   -1951201.8    4853950.9 
   12900        3.225    1358.0268    196230.28   -2029890.4    78684.716   -1951205.7    4848699.7 
   13000         3.25    1345.0897    198649.03   -2029143.4    77935.133   -1951208.3    4843448.4 
   13100        3.275    1332.8974     201068.2   -2028435.2    77228.706   -1951206.5    4838197.1 
   13200          3.3    1321.4554    203347.72   -2027771.6    76565.752   -1951205.8    4832945.9 
   13300        3.325    1308.8184    205695.04   -2027044.3    75833.558   -1951210.7    4827694.6 
   13400         3.35    1296.3548    207968.96   -2026327.4     75111.41   -1951215.9    4822443.3 
   13500        3.375    1283.5564    210632.19   -2025589.9    74369.864   -1951220.1      4817192 
   13600          3.4    1271.4241    212955.33   -2024888.1     73666.91   -1951221.2    4811940.8 
   13700        3.425    1259.1275    215265.31   -2024175.8    72954.443   -1951221.4    4806689.5 
   13800         3.45    1246.3297    217713.92   -2023437.8    72212.932   -1951224.8    4801438.2 
   13900        3.475    1233.9534    219908.51   -2022725.2    71495.841   -1951229.4    4796186.9 
   14000          3.5    1222.0277    222391.39   -2022035.7    70804.862   -1951230.8    4790935.7 
   14100        3.525     1209.183    224803.49   -2021291.4    70060.633   -1951230.8    4785684.4 
   14200         3.55    1196.5566    227140.18   -2020559.1    69329.057     -1951230    4780433.1 
   14300        3.575    1184.3115    229468.09   -2019850.6    68619.566     -1951231    4775181.9 
   14400          3.6    1172.1385    231899.03   -2019146.7    67914.257   -1951232.5    4769930.6 
   14500        3.625    1159.7087    233897.71   -2018423.9    67194.069   -1951229.9    4764679.3 
   14600         3.65     1148.426     236131.6   -2017764.4    66540.347     -1951224      4759428 
   14700        3.675    1137.3243    238260.91   -2017118.6    65897.109   -1951221.5    4754176.8 
   14800          3.7    1127.3421    240006.78   -2016541.7    65318.734     -1951223    4748925.5 
   14900        3.725    1118.1305    241696.08   -2016013.5    64785.012   -1951228.5    4743674.2 
   15000         3.75    1108.3516    243585.99     -2015452    64218.414   -1951233.6      4738423 
   15100        3.775    1098.6456    245014.09   -2014893.1    63656.044   -1951237.1    4733171.7 
   15200          3.8    1089.0324    246463.69   -2014335.1    63099.051     -1951236    4727920.4 
   15300        3.825    1079.4059     248482.3   -2013772.9    62541.287   -1951231.6    4722669.1 
   15400         3.85    1070.9024    250030.99   -2013276.7    62048.593   -1951228.1    4717417.9 
   15500        3.875    1062.7318     251539.3   -2012806.8    61575.181   -1951231.7    4712166.6 
   15600          3.9    1055.2687    253493.81   -2012382.4    61142.766   -1951239.6    4706915.3 
   15700        3.925    1048.2187    254833.76   -2011980.2    60734.288   -1951245.9      4701664 
   15800         3.95    1042.5968    256328.69   -2011659.2    60408.551   -1951250.7    4696412.8 
   15900        3.975     1037.595    258039.99   -2011374.5    60118.743   -1951255.8    4691161.5 
   16000            4    1032.0134    259671.29     -2011055    59795.344   -1951259.7    4685910.2 
   16100        4.025    1027.4536    261369.47   -2010790.2    59531.148   -1951259.1      4680659 
   16200         4.05    1021.9182    262862.33   -2010465.6    59210.423   -1951255.2    4675407.7 
   16300        4.075    1016.8473    264184.75     -2010173    58916.614   -1951256.4    4670156.4 
   16400          4.1    1011.5992    266311.82   -2009872.7    58612.534   -1951260.2    4664905.1 
   16500        4.125    1005.5643    268067.03   -2009524.4    58262.873   -1951261.6    4659653.9 
   16600         4.15    1000.6438    269626.21   -2009240.4    57977.776   -1951262.6    4654402.6 
   16700        4.175     995.4526    271195.98   -2008944.7    57676.994   -1951267.7    4649151.3 
   16800          4.2     990.9837    272452.07   -2008695.4    57418.063   -1951277.3      4643900 
   16900        4.225    985.43162    273839.15   -2008383.5    57096.374   -1951287.1    4638648.8 
   17000         4.25    981.69407    274876.85   -2008172.3    56879.818   -1951292.5    4633397.5 
   17100        4.275    977.35005    276372.77   -2007923.8    56628.123   -1951295.7    4628146.2 
   17200          4.3    973.09236    277708.05   -2007677.7    56381.431   -1951296.3      4622895 
   17300        4.325    968.18653    279315.45   -2007392.6    56097.185   -1951295.5    4617643.7 
   17400         4.35    962.65749    280762.09   -2007073.4     55776.83   -1951296.6    4612392.4 
   17500        4.375    958.56311    282066.92     -2006842    55539.599   -1951302.4    4607141.1 
   17600          4.4    950.77206    283844.22   -2006396.5    55088.182   -1951308.3    4601889.9 
   17700        4.425    944.95349    285205.35   -2006057.5    54751.051   -1951306.5    4596638.6 
   17800         4.45    937.22685    286684.07   -2005602.7    54303.366   -1951299.3    4591387.3 
   17900        4.475     928.4316    288324.22   -2005092.1    53793.765   -1951298.3      4586136 
   18000          4.5    919.67719    289859.01   -2004592.6    53286.531     -1951306    4580884.8 
   18100        4.525    910.51757    291663.45   -2004069.9    52755.818   -1951314.1    4575633.5 
   18200         4.55     901.5825    293190.83   -2003554.5    52238.116   -1951316.4    4570382.2 
   18300        4.575    891.14995    294876.99   -2002950.4    51633.649   -1951316.8      4565131 
   18400          4.6    881.29293    296721.64     -2002385    51062.528   -1951322.5    4559879.7 
   18500        4.625    870.85087    297749.53   -2001786.5    50457.511     -1951329    4554628.4 
   18600         4.65    860.36639    299679.25   -2001181.8    49850.035   -1951331.8    4549377.1 
   18700        4.675    848.97449    301559.01   -2000527.1    49189.983   -1951337.1    4544125.9 
   18800          4.7    837.93698    303059.29   -1999891.4    48550.464     -1951341    4538874.6 
   18900        4.725    826.12185    304485.59     -1999203     47865.89   -1951337.1    4533623.3 
   19000         4.75    814.76474    306224.45   -1998539.1    47207.854   -1951331.2      4528372 
   19100        4.775    803.15001    307542.42   -1997866.2    46534.891   -1951331.3    4523120.8 
   19200          4.8    790.72328    309213.65   -1997153.4     45814.88   -1951338.6    4517869.5 
   19300        4.825    778.52933    310811.45   -1996452.7    45108.357   -1951344.3    4512618.2 
   19400         4.85    766.69012    312739.54   -1995765.4    44422.388     -1951343      4507367 
   19500        4.875    753.85009    314880.99   -1995019.2     43678.43   -1951340.8    4502115.7 
   19600          4.9    741.33317    316958.12   -1994292.6    42953.194   -1951339.4    4496864.4 
   19700        4.925    728.45517    319377.16   -1993540.1    42207.037   -1951333.1    4491613.1 
   19800         4.95    716.15419    322051.85   -1992814.6    41494.312   -1951320.3    4486361.9 
   19900        4.975    704.19624    324972.08     -1992116    40801.463   -1951314.5    4481110.6 
   20000            5     689.8629    327325.56   -1991293.5    39970.982   -1951322.6    4475859.3 
   20100        5.025    677.94939    330074.44   -1990618.4    39280.708   -1951337.6      4470608 
   20200         5.05    664.62428    332787.39   -1989856.6    38508.644   -1951347.9    4465356.8 
   20300        5.075     651.5892    335240.09   -1989101.5    37753.386   -1951348.1    4460105.5 
   20400          5.1    638.86175    337724.92   -1988361.8    37015.951   -1951345.9    4454854.2 
   20500        5.125    626.78075    340334.05   -1987657.9    36315.973   -1951341.9      4449603 
   20600         5.15    614.81127    342436.99   -1986960.5    35622.455     -1951338    4444351.7 
   20700        5.175    603.28568    344545.68     -1986286    34954.657   -1951331.3    4439100.4 
   20800          5.2    592.12827    346792.43     -1985628    34308.192   -1951319.8    4433849.1 
   20900        5.225    581.36906    348375.96   -1984988.9    33684.798   -1951304.1    4428597.9 
   21000         5.25    571.36401    350293.62   -1984387.6      33105.1   -1951282.5    4423346.6 
   21100        5.275    561.31532    352297.54     -1983773    32522.875   -1951250.1    4418095.3 
   21200          5.3    551.40638    353543.09   -1983143.1    31948.746   -1951194.4    4412844.1 
   21300        5.325    543.29006    355562.94   -1982569.9    31478.482   -1951091.4    4407592.8 
   21400         5.35    536.60479    357698.16   -1981989.8    31091.135   -1950898.6    4402341.5 
   21500        5.375    532.69563    359656.91   -1981418.4    30864.636   -1950553.7    4397090.2 
   21600          5.4    530.51582    362179.19   -1980761.4    30738.337     -1950023      4391839 
   21700        5.425    530.74755    364652.15     -1980111    30751.764   -1949359.2    4386587.7 
   21800         5.45    532.77328    367002.17   -1979528.7    30869.135   -1948659.6    4381336.4 
   21900        5.475    534.57435    369285.95   -1978959.1     30973.49   -1947985.6    4376085.1 
   22000          5.5    535.54853    371690.51   -1978378.6    31029.935   -1947348.7    4370833.9 
   22100        5.525    535.15676    374225.78   -1977746.3    31007.235   -1946739.1    4365582.6 
   22200         5.55    533.64708    376426.32   -1977073.1    30919.764   -1946153.3    4360331.3 
   22300        5.575    533.88894    378824.42   -1976490.9    30933.777   -1945557.1    4355080.1 
   22400          5.6    531.68354    381466.98   -1975719.3    30805.995   -1944913.3    4349828.8 
   22500        5.625    530.96769    383776.08   -1975021.2    30764.519   -1944256.7    4344577.5 
   22600         5.65    528.07609    386603.92   -1974199.1    30596.978   -1943602.2    4339326.2 
   22700        5.675    525.94353    389522.07   -1973380.1    30473.417   -1942906.7      4334075 
   22800          5.7    524.37378     391660.2     -1972505    30382.464   -1942122.5    4328823.7 
   22900        5.725    524.05646    394256.81   -1971593.4    30364.079   -1941229.4    4323572.4 
   23000         5.75     524.6571    396891.48   -1970600.1     30398.88   -1940201.2    4318321.1 
   23100        5.775    527.12926    399924.84   -1969531.8    30542.118   -1938989.7    4313069.9 
   23200          5.8    530.26045    403130.39   -1968324.6    30723.541   -1937601.1    4307818.6 
   23300        5.825    534.30785    406252.41   -1967011.5    30958.049   -1936053.4    4302567.3 
   23400         5.85    538.29328    409920.79   -1965563.9    31188.967   -1934374.9    4297316.1 
   23500        5.875    541.65025    413522.45   -1963981.1    31383.471   -1932597.6    4292064.8 
   23600          5.9     544.3537    417808.89   -1962209.5     31540.11   -1930669.3    4286813.5 
   23700        5.925    547.18819    422425.48   -1960310.3    31704.342     -1928606    4281562.2 
   23800         5.95    549.37628    426766.59   -1958249.2    31831.121     -1926418      4276311 
   23900        5.975    552.50347    431634.38   -1956014.4    32012.312   -1924002.1    4271059.7 
   24000            6    561.19764    436945.18   -1953810.6    32516.056   -1921294.5    4265808.4 
   24100        6.025    569.58133    442214.07   -1951353.5    33001.811   -1918351.6    4260557.1 
   24200         6.05    580.34395    447311.75   -1948928.1    33625.402   -1915302.7    4255305.9 
   24300        6.075    591.06513    452821.03   -1946446.2    34246.593   -1912199.6    4250054.6 
   24400          6.1    602.74148    458512.87   -1943940.3    34923.126   -1909017.2    4244803.3 
   24500        6.125    614.58645     463944.4   -1941348.4    35609.429   -1905738.9    4239552.1 
   24600         6.15    628.06354    469347.31     -1938766    36390.298   -1902375.7    4234300.8 
   24700        6.175    642.12964    475068.79   -1936108.4    37205.294   -1898903.1    4229049.5 
   24800          6.2    658.42257    480932.79   -1933471.6    38149.314   -1895322.3    4223798.2 
   24900        6.225    674.25101    487101.85     -1930767    39066.422   -1891700.6      4218547 
   25000         6.25    689.02258    492854.32   -1928018.5    39922.294   -1888096.2    4213295.7 
   25100        6.275    705.58191     499074.4   -1925342.4    40881.749   -1884460.6    4208044.4 
   25200          6.3    724.04931    504619.82   -1922712.3    41951.759   -1880760.6    4202793.1 
   25300        6.325    743.03891    510567.47   -1920061.2    43052.025   -1877009.2    4197541.9 
   25400         6.35    763.95938    516601.92   -1917482.2    44264.167     -1873218    4192290.6 
   25500        6.375    786.56237    522477.77   -1914972.6    45573.795   -1869398.8    4187039.3 
   25600          6.4    807.83492    528696.64   -1912367.2    46806.337   -1865560.9    4181788.1 
   25700        6.425    828.48492    534762.51   -1909729.1    48002.808   -1861726.3    4176536.8 
   25800         6.45    850.37571    540881.68   -1907124.9     49271.17   -1857853.7    4171285.5 
   25900        6.475     872.9732    546740.92   -1904512.2    50580.479   -1853931.7    4166034.2 
   26000          6.5    894.25392    553307.66   -1901818.3    51813.495   -1850004.9      4160783 
   26100        6.525    913.99703    559877.61   -1899042.3    52957.419   -1846084.9    4155531.7 
   26200         6.55     935.5505    565707.16   -1896379.2    54206.238     -1842173    4150280.4 
   26300        6.575    955.74399    571808.46   -1893660.6    55376.258   -1838284.3    4145029.2 
   26400          6.6    979.19892    577767.88   -1891131.7    56735.248   -1834396.5    4139777.9 
   26500        6.625    1003.9753    584075.52   -1888683.4    58170.801   -1830512.6    4134526.6 
   26600         6.65    1031.1739    589364.43   -1886382.5      59746.7   -1826635.8    4129275.3 
   26700        6.675    1062.1792    594532.32     -1884302    61543.167   -1822758.8    4124024.1 
   26800          6.7    1092.0553    598793.78     -1882167      63274.2   -1818892.8    4118772.8 
   26900        6.725    1122.0106    603660.69   -1880038.7    65009.822   -1815028.8    4113521.5 
   27000         6.75    1153.7243     607869.3   -1878004.9    66847.331   -1811157.6    4108270.2 
   27100        6.775    1183.4019     612295.5   -1875875.1    68566.867   -1807308.3      4103019 
   27200          6.8    1212.9833    617140.92   -1873728.1    70280.823   -1803447.3    4097767.7 
   27300        6.825    1240.8537    621267.24   -1871456.3    71895.649   -1799560.6    4092516.4 
   27400         6.85    1262.3833     625903.9   -1868835.9    73143.086   -1795692.8    4087265.2 
   27500        6.875    1285.6001    631241.67   -1866321.8    74488.277   -1791833.5    4082013.9 
   27600          6.9    1309.7346    636718.45   -1863798.9    75886.639   -1787912.3    4076762.6 
   27700        6.925    1335.3837     642270.8   -1861344.9    77372.764   -1783972.2    4071511.3 
   27800         6.95    1361.5574    647165.87   -1858891.2    78889.279   -1780001.9    4066260.1 
   27900        6.975    1388.7844    651799.92   -1856435.9    80466.821   -1775969.1    4061008.8 
   28000            7     1414.867    657154.67   -1853913.8    81978.063   -1771935.8    4055757.5 
   28100        7.025    1441.6089    662384.41   -1851417.3    83527.503   -1767889.8    4050506.2 
   28200         7.05    1468.0809    667481.98   -1848898.9      85061.3   -1763837.6      4045255 
   28300        7.075    1495.2781    672925.42   -1846457.2    86637.119   -1759820.1    4040003.7 
   28400          7.1    1521.8346     678163.9   -1843997.7    88175.814   -1755821.9    4034752.4 
   28500        7.125    1549.1484    683956.73   -1841613.3    89758.388   -1751854.9    4029501.2 
   28600         7.15    1577.0073     689269.5   -1839310.7    91372.548   -1747938.2    4024249.9 
   28700        7.175    1603.4046    695284.84     -1836964    92902.022   -1744061.9    4018998.6 
   28800          7.2    1628.5662    700818.07   -1834637.8    94359.893   -1740277.9    4013747.3 
   28900        7.225    1651.0279    706907.71   -1832262.3    95661.337     -1736601    4008496.1 
   29000         7.25    1672.2981    712938.31   -1829941.7    96893.743     -1733048    4003244.8 
   29100        7.275    1689.2752    718881.44   -1827546.8      97877.4   -1729669.4    3997993.5 
   29200          7.3    1701.3166    725448.01   -1824961.1    98575.088     -1726386    3992742.2 
   29300        7.325     1712.418    732068.93   -1822433.7    99218.305   -1723215.4      3987491 
   29400         7.35    1720.3973    738059.72     -1819865    99680.632   -1720184.4    3982239.7 
   29500        7.375    1728.1934    744039.68   -1817348.9    100132.34   -1717216.6    3976988.4 
   29600          7.4    1735.6899       750052   -1814864.7    100566.69     -1714298    3971737.2 
   29700        7.425    1744.9536    755293.27   -1812479.5    101103.44   -1711376.1    3966485.9 
   29800         7.45    1760.4163    760652.33   -1810394.5    101999.35   -1708395.1    3961234.6 
   29900        7.475    1776.8098    765577.13   -1808331.8     102949.2   -1705382.6    3955983.3 
   30000          7.5    1792.4519    770800.32     -1806265    103855.51   -1702409.5    3950732.1 
   30100        7.525    1807.4066    776182.54   -1804218.5    104721.99   -1699496.5    3945480.8 
   30200         7.55    1820.9191    782990.96     -1802136    105504.92   -1696631.1    3940229.5 
   30300        7.575    1837.2856    792524.18   -1800184.5     106453.2   -1693731.3    3934978.2 
   30400          7.6      1854.68    803719.91   -1798089.3    107461.03   -1690628.3      3929727 
   30500        7.625    1875.3548    813071.79     -1795885    108658.94     -1687226    3924475.7 
   30600         7.65    1901.9587    818298.88   -1793818.6    110200.38   -1683618.2    3919224.4 
   30700        7.675    1929.1487     822055.8     -1791807    111775.78   -1680031.2    3913973.2 
   30800          7.7    1957.0416     826277.3   -1789941.1    113391.92   -1676549.2    3908721.9 
   30900        7.725    1984.4604    830942.99   -1788180.6    114980.57     -1673200    3903470.6 
   31000         7.75     2009.639    835022.97   -1786350.2    116439.43   -1669910.8    3898219.3 
   31100        7.775    2040.5338    838484.95   -1784750.5    118229.49     -1666521    3892968.1 
   31200          7.8    2074.2651    841872.64   -1783224.8     120183.9   -1663040.9    3887716.8 
   31300        7.825    2111.4129    845925.58     -1781823    122336.26   -1659486.8    3882465.5 
   31400         7.85    2149.7645    849185.35   -1780408.1    124558.37   -1655849.7    3877214.2 
   31500        7.875    2191.1584    852463.51     -1779166    126956.75   -1652209.2      3871963 
   31600          7.9    2233.7502    856533.83   -1778098.8    129424.54   -1648674.3    3866711.7 
   31700        7.925    2273.5872     860626.6   -1776915.9    131732.71   -1645183.2    3861460.4 
   31800         7.95    2317.7656    865116.29   -1775936.7    134292.44   -1641644.3    3856209.2 
   31900        7.975    2361.5633     870397.6   -1774810.4    136830.09   -1637980.3    3850957.9 
   32000            8    2408.8688    875643.27   -1773752.5       139571   -1634181.5    3845706.6 
   32100        8.025    2457.5922     880532.5   -1772753.4    142394.05   -1630359.4    3840455.3 
   32200         8.05    2501.0695    885738.02   -1771590.3    144913.15   -1626677.1    3835204.1 
   32300        8.075     2543.474    891912.82   -1770463.1    147370.08   -1623093.1    3829952.8 
   32400          8.1    2582.1828     898111.8     -1769028    149612.89   -1619415.1    3824701.5 
   32500        8.125     2623.431    904537.61   -1767652.1    152002.83   -1615649.3    3819450.3 
   32600         8.15    2660.7125    910559.42     -1766091    154162.94   -1611928.1      3814199 
   32700        8.175    2690.9757    917400.08   -1764196.5     155916.4   -1608280.1    3808947.7 
   32800          8.2    2722.8398    924956.36   -1762434.9    157762.63   -1604672.3    3803696.4 
   32900        8.225    2751.1337    931604.38   -1760449.3    159401.99   -1601047.3    3798445.2 
   33000         8.25    2776.8651    939032.38   -1758274.2    160892.88   -1597381.3    3793193.9 
   33100        8.275    2800.4267    946438.67   -1755998.6    162258.05   -1593740.5    3787942.6 
   33200          8.3    2824.4919    953626.71   -1753802.2    163652.39   -1590149.8    3782691.3 
   33300        8.325    2844.8407    960777.59   -1751361.9    164831.41   -1586530.5    3777440.1 
   33400         8.35    2867.9237    968996.24   -1749072.4    166168.85   -1582903.5    3772188.8 
   33500        8.375    2889.3271     977495.9   -1746637.8    167408.98   -1579228.8    3766937.5 
   33600          8.4    2913.3299    985524.49   -1744329.9    168799.71   -1575530.2    3761686.3 
   33700        8.425    2936.3998    993816.41   -1741983.9    170136.39   -1571847.5      3756435 
   33800         8.45    2959.1828    1001046.2   -1739579.9    171456.45   -1568123.4    3751183.7 
   33900        8.475    2986.0375    1008056.6   -1737312.7    173012.42   -1564300.3    3745932.4 
   34000          8.5    3016.9701    1014707.5     -1735243    174804.67   -1560438.3    3740681.2 
   34100        8.525    3047.2881    1020440.2   -1733181.9    176561.31   -1556620.6    3735429.9 
   34200         8.55    3076.7882    1025271.4   -1731028.7    178270.56   -1552758.1    3730178.6 
   34300        8.575    3097.7322    1030899.2   -1728343.8    179484.07   -1548859.7    3724927.3 
   34400          8.6    3105.8297    1036688.6   -1724884.6    179953.24   -1544931.4    3719676.1 
   34500        8.625    3116.7054    1042138.4   -1721605.8    180583.38   -1541022.4    3714424.8 
   34600         8.65    3127.5593    1047647.4   -1718346.3    181212.27   -1537134.1    3709173.5 
   34700        8.675    3127.8459    1053009.9   -1714465.7    181228.87   -1533236.9    3703922.3 
   34800          8.7    3134.1253    1058553.2   -1710916.2     181592.7   -1529323.5      3698671 
   34900        8.725    3132.8396    1065920.8   -1706973.9    181518.21   -1525455.7    3693419.7 
   35000         8.75     3130.976    1071904.9   -1703037.7    181410.23   -1521627.5    3688168.4 
   35100        8.775    3127.5741      1078307   -1699055.4    181213.12   -1517842.3    3682917.2 
   35200          8.8    3121.9893    1084403.1   -1694986.9    180889.53   -1514097.3    3677665.9 
   35300        8.825    3112.6877    1091828.8   -1690769.5    180350.59   -1510418.9    3672414.6 
   35400         8.85    3101.1659      1099080   -1686503.4    179683.02   -1506820.4    3667163.3 
   35500        8.875    3087.6378      1105380   -1682198.3    178899.19   -1503299.1    3661912.1 
   35600          8.9    3067.7152    1113120.6   -1677573.5    177744.87   -1499828.6    3656660.8 
   35700        8.925    3050.2275    1120497.5   -1673087.5    176731.62   -1496355.9    3651409.5 
   35800         8.95    3029.0603    1128202.3   -1668449.1    175505.19   -1492943.9    3646158.3 
   35900        8.975    3006.8931    1136824.1   -1663835.8    174220.81     -1489615      3640907 
   36000            9    2986.3217    1145897.3   -1659320.6    173028.89   -1486291.7    3635655.7 
   36100        9.025    2962.3592    1155162.1   -1654640.6    171640.49   -1483000.1    3630404.4 
   36200         9.05    2938.8102    1163063.7   -1650086.3    170276.05   -1479810.2    3625153.2 
   36300        9.075    2911.6426    1172263.2     -1645399    168701.94   -1476697.1    3619901.9 
   36400          9.1    2882.2703    1180362.2   -1640695.8     167000.1   -1473695.7    3614650.6 
   36500        9.125    2847.9016    1188815.2   -1635794.4    165008.76   -1470785.6    3609399.3 
   36600         9.15    2812.7307    1198548.5   -1630913.3    162970.94   -1467942.4    3604148.1 
   36700        9.175    2776.0897    1209988.2   -1626034.2    160847.95   -1465186.3    3598896.8 
   36800          9.2    2741.2277    1222957.2   -1621307.2    158828.03   -1462479.1    3593645.5 
   36900        9.225    2705.3716    1236254.7   -1616550.1    156750.51   -1459799.6    3588394.3 
   37000         9.25    2665.8464    1248342.3     -1611618     154460.4   -1457157.6      3583143 
   37100        9.275     2623.867    1257734.5   -1606569.4    152028.09   -1454541.3    3577891.7 
   37200          9.3    2578.0129    1265045.2   -1601372.6    149371.29   -1452001.3    3572640.4 
   37300        9.325    2531.3735    1272645.8     -1596222    146668.98     -1449553    3567389.2 
   37400         9.35    2485.1918    1282136.9     -1591116    143993.19   -1447122.8    3562137.9 
   37500        9.375    2439.2353      1293534   -1586082.3    141330.44   -1444751.8    3556886.6 
   37600          9.4    2392.7236    1303505.4   -1581083.8    138635.54   -1442448.2    3551635.3 
   37700        9.425    2348.6739    1313444.7     -1576254    136083.28   -1440170.7    3546384.1 
   37800         9.45    2307.7992    1323287.2   -1571622.6    133714.97   -1437907.7    3541132.8 
   37900        9.475    2263.3992    1333976.8   -1566783.4    131142.42     -1435641    3535881.5 
   38000          9.5    2224.3952    1344247.8   -1562270.9    128882.51   -1433388.4    3530630.3 
   38100        9.525    2186.3451    1353753.6   -1557830.7    126677.86   -1431152.8      3525379 
   38200         9.55    2146.6776    1363814.5   -1553320.7    124379.51   -1428941.2    3520127.7 
   38300        9.575    2107.1026    1373961.1     -1548832    122086.52   -1426745.5    3514876.4 
   38400          9.6    2068.1601    1383458.7     -1544364    119830.17   -1424533.9    3509625.2 
   38500        9.625     2029.224    1392873.8   -1539937.6     117574.2   -1422363.4    3504373.9 
   38600         9.65    1987.3603    1402224.6   -1535385.6    115148.59     -1420237    3499122.6 
   38700        9.675    1943.4976    1412426.5   -1530724.2    112607.17   -1418117.1    3493871.4 
   38800          9.7    1901.1291    1422685.9   -1526097.9    110152.32   -1415945.6    3488620.1 
   38900        9.725    1858.7625    1433381.9   -1521489.3    107697.58   -1413791.7    3483368.8 
   39000         9.75    1815.3463    1443422.3     -1516839    105182.02   -1411656.9    3478117.5 
   39100        9.775    1769.3933    1453072.8   -1512053.8    102519.49   -1409534.3    3472866.3 
   39200          9.8    1726.5437    1462205.1   -1507453.8    100036.76   -1407417.1      3467615 
   39300        9.825    1684.2916      1470626     -1502873    97588.654   -1405284.3    3462363.7 
   39400         9.85    1645.0335    1477810.2   -1498416.1    95314.018   -1403102.1    3457112.4 
   39500        9.875    1605.5886    1485969.2   -1493935.6    93028.562     -1400907    3451861.2 
   39600          9.9    1576.5552    1492907.7   -1489993.2    91346.353   -1398646.9    3446609.9 
   39700        9.925    1550.0084    1500591.9   -1486128.2    89808.221     -1396320    3441358.6 
   39800         9.95    1527.6598    1507807.4   -1482425.5    88513.331   -1393912.2    3436107.4 
   39900        9.975    1505.3193    1515588.2   -1478623.1    87218.908   -1391404.2    3430856.1 
   40000           10    1490.7614    1522931.6   -1475206.7    86375.421   -1388831.3    3425604.8 
   40100       10.025    1476.2748    1529146.9   -1471711.3    85536.057   -1386175.3    3420353.5 
   40200        10.05    1466.7337    1535984.5   -1468378.1    84983.241   -1383394.9    3415102.3 
   40300       10.075    1460.7974    1543161.1   -1465204.6    84639.289   -1380565.3      3409851 
   40400         10.1    1451.6034    1550045.5   -1461772.4    84106.585   -1377665.8    3404599.7 
   40500       10.125    1445.6243    1556435.8     -1458428    83760.154   -1374667.8    3399348.4 
   40600        10.15    1442.2051    1562576.3   -1455186.5    83562.044   -1371624.4    3394097.2 
   40700       10.175    1439.5637    1567284.7   -1451913.9    83409.003   -1368504.9    3388845.9 
   40800         10.2    1441.0331    1573196.6   -1448821.4    83494.137   -1365327.3    3383594.6 
   40900       10.225    1438.1105    1578141.8   -1445398.1    83324.799   -1362073.3    3378343.4 
   41000        10.25    1439.5163    1583262.7   -1442161.5    83406.255   -1358755.3    3373092.1 
   41100       10.275    1443.7798    1589244.1   -1439072.3    83653.285     -1355419    3367840.8 
   41200         10.3    1439.5097    1594128.3   -1435486.8    83405.869     -1352081    3362589.5 
   41300       10.325    1435.0595    1601275.5   -1431869.1    83148.027   -1348721.1    3357338.3 
   41400        10.35    1432.3615      1608081   -1428297.7    82991.702     -1345306      3352087 
   41500       10.375    1430.9698    1615518.7   -1424768.2    82911.066   -1341857.1    3346835.7 
   41600         10.4    1424.4577    1624107.2   -1420935.5    82533.752   -1338401.7    3341584.4 
   41700       10.425     1410.838      1632495   -1416644.1     81744.62   -1334899.5    3336333.2 
   41800        10.45    1401.7203    1641095.3   -1412596.3    81216.333     -1331380    3331081.9 
   41900       10.475    1385.5482    1649582.4   -1408125.9    80279.316   -1327846.6    3325830.6 
   42000         10.5    1373.6577    1655581.2   -1403708.7    79590.375   -1324118.3    3320579.4 
   42100       10.525    1364.9396    1662977.5   -1399122.4    79085.244   -1320037.1    3315328.1 
   42200        10.55    1359.4576    1670177.5   -1394263.4    78767.616   -1315495.8    3310076.8 
   42300       10.575    1359.6514    1677301.9     -1389167    78778.843   -1310388.2    3304825.5 
   42400         10.6     1368.202    1684949.3   -1384214.8    79274.271   -1304940.5    3299574.3 
   42500       10.625    1369.2207    1692882.9   -1378766.7    79333.294   -1299433.4      3294323 
   42600        10.65    1369.6066    1699414.5   -1373349.2     79355.65   -1293993.6    3289071.7 
   42700       10.675    1367.9567    1704906.1   -1367720.8    79260.057   -1288460.8    3283820.4 
   42800         10.7    1368.8674    1711299.1     -1361761    79312.824   -1282448.2    3278569.2 
   42900       10.725    1380.5392    1717555.1   -1355843.5    79989.096   -1275854.4    3273317.9 
   43000        10.75    1389.7489    1726760.7   -1349385.2    80522.705   -1268862.5    3268066.6 
   43100       10.775    1404.4467    1737507.7   -1343097.1    81374.308   -1261722.8    3262815.4 
   43200         10.8    1413.4445    1749510.9   -1336335.4    81895.643   -1254439.8    3257564.1 
   43300       10.825    1430.4174    1761393.3   -1329438.6    82879.058   -1246559.5    3252312.8 
   43400        10.85    1449.7625      1775404   -1322174.5    83999.921   -1238174.6    3247061.5 
   43500       10.875    1477.3064    1790644.7   -1315146.4     85595.83   -1229550.6    3241810.3 
   43600         10.9    1497.1422    1805434.2   -1307703.7    86745.128   -1220958.6      3236559 
   43700       10.925    1521.8918    1821685.8   -1300264.3     88179.13   -1212085.2    3231307.7 
   43800        10.95    1549.1955    1837013.1   -1292489.7    89761.116   -1202728.6    3226056.5 
   43900       10.975    1582.2787    1853175.2   -1285007.9    91677.972     -1193330    3220805.2 
   44000           11     1607.416    1870140.1   -1277139.5    93134.439   -1184005.1    3215553.9 
   44100       11.025    1631.7654    1888221.4   -1269170.1    94545.255   -1174624.8    3210302.6 
   44200        11.05     1654.557    1904401.8   -1261002.5    95865.812   -1165136.7    3205051.4 
   44300       11.075    1675.5742    1920640.8   -1252607.9    97083.562   -1155524.4    3199800.1 
   44400         11.1    1700.4528    1936081.2   -1244573.2    98525.041   -1146048.1    3194548.8 
   44500       11.125    1715.4617    1952234.9   -1235976.9    99394.659   -1136582.2    3189297.5 
   44600        11.15    1735.3902    1969543.5     -1227524    100549.33   -1126974.7    3184046.3 
   44700       11.175    1762.0492    1985917.4     -1219440    102093.96   -1117346.1      3178795 
   44800         11.2    1791.9742    2002723.8   -1211385.6    103827.83   -1107557.7    3173543.7 
   44900       11.225    1822.2095      2019891   -1203390.2    105579.68   -1097810.5    3168292.5 
   45000        11.25    1855.5665    2036046.5   -1195478.1     107512.4   -1087965.7    3163041.2 
   45100       11.275    1892.6708    2051475.4     -1187647    109662.24   -1077984.7    3157789.9 
   45200         11.3    1936.4116    2066581.1   -1180086.4     112196.6   -1067889.8    3152538.6 
   45300       11.325    1979.5232    2082237.1     -1172415    114694.51   -1057720.5    3147287.4 
   45400        11.35    2023.0272    2098040.5     -1164680    117215.15   -1047464.8    3142036.1 
   45500       11.375    2062.7736    2111198.7   -1156573.5    119518.08   -1037055.4    3136784.8 
   45600         11.4    2103.3255    2126632.6   -1148441.5    121867.67   -1026573.8    3131533.5 
   45700       11.425    2147.6859    2142319.4   -1140545.3    124437.94   -1016107.4    3126282.3 
   45800        11.45     2187.546    2157196.2   -1132385.5    126747.45     -1005638      3121031 
   45900       11.475    2228.8206    2170831.3     -1124372    129138.92   -995233.11    3115779.7 
   46000         11.5    2263.9237    2186349.6     -1116189    131172.81    -985016.2    3110528.5 
   46100       11.525    2294.7534      2202171   -1107854.7     132959.1    -974895.6    3105277.2 
   46200        11.55    2329.6055      2216561   -1099951.3    134978.44   -964972.84    3100025.9 
   46300       11.575    2366.7365    2233172.4   -1092304.6    137129.83   -955174.73    3094774.6 
   46400         11.6     2404.815      2250168   -1084750.9    139336.11   -945414.77    3089523.4 
   46500       11.625     2441.889      2267146   -1077332.5     141484.2   -935848.28    3084272.1 
   46600        11.65    2475.4718    2285622.3   -1069926.1       143430   -926496.11    3079020.8 
   46700       11.675    2513.5386    2302205.8   -1062862.3    145635.62   -917226.73    3073769.5 
   46800         11.7    2551.1727      2319510   -1056016.5    147816.15   -908200.32    3068518.3 
   46900       11.725     2590.156    2335841.8   -1049302.2    150074.86   -899227.36      3063267 
   47000        11.75    2626.9013    2353705.8   -1042597.3     152203.9   -890393.44    3058015.7 
   47100       11.775    2672.6879    2369844.5   -1036414.7     154856.8   -881557.87    3052764.5 
   47200         11.8    2726.7857    2387304.9   -1030753.1    157991.25   -872761.84    3047513.2 
   47300       11.825    2773.1775    2403848.5   -1024628.3    160679.22   -863949.04    3042261.9 
   47400        11.85    2823.9811    2419248.3   -1018757.6     163622.8   -855134.83    3037010.6 
   47500       11.875    2879.0889    2435290.5   -1013012.1    166815.77   -846196.29    3031759.4 
   47600         11.9    2934.1655    2448993.6   -1007189.7    170006.93   -837182.74    3026508.1 
   47700       11.925     2995.465    2466242.1   -1001518.8    173558.66   -827960.16    3021256.8 
   47800        11.95     3062.878    2481987.4   -996089.28     177464.6   -818624.69    3016005.5 
   47900       11.975    3123.5745    2498103.5   -990083.15    180981.38   -809101.77    3010754.3 
   48000           12    3187.9533    2513062.7   -984306.08    184711.52   -799594.56      3005503 
   48100       12.025    3253.2272    2528284.8    -978328.9    188493.52   -789835.38    3000251.7 
   48200        12.05    3320.8095    2547010.9   -972489.53    192409.27   -780080.25    2995000.5 
   48300       12.075    3381.7079    2563280.8   -966151.86    195937.75   -770214.11    2989749.2 
   48400         12.1    3434.9934    2580727.3   -959330.06    199025.14   -760304.92    2984497.9 
   48500       12.125    3486.2423    2597591.4   -952350.63    201994.52    -750356.1    2979246.6 
   48600        12.15    3540.5211    2614129.3   -945564.43    205139.46   -740424.97    2973995.4 
   48700       12.175    3582.7821    2628212.8   -937955.91    207588.09   -730367.82    2968744.1 
   48800         12.2    3634.6958    2645788.8   -930937.22    210595.99   -720341.23    2963492.8 
   48900       12.225    3680.0306    2662783.8   -923491.78    213222.71   -710269.06    2958241.5 
   49000        12.25    3716.1567      2680754   -915465.84    215315.87   -700149.97    2952990.3 
   49100       12.275    3752.9731    2697149.6   -907548.84    217449.04    -690099.8      2947739 
   49200         12.3    3775.0585      2716194   -898756.07    218728.67   -680027.39    2942487.7 
   49300       12.325    3796.4231    2735052.8   -889981.31    219966.55   -670014.76    2937236.5 
   49400        12.35    3806.0452    2753654.4   -880514.33    220524.05   -659990.27    2931985.2 
   49500       12.375    3819.3472    2772038.8   -871305.16    221294.78   -650010.38    2926733.9 
   49600         12.4    3830.6408    2789532.6   -862095.55    221949.14   -640146.41    2921482.6 
   49700       12.425    3831.4298    2806842.7   -852329.29    221994.85   -630334.43    2916231.4 
   49800        12.45    3827.2978    2823153.6   -842446.44    221755.44      -620691    2910980.1 
   49900       12.475    3823.2369    2838894.8   -832528.03    221520.15   -611007.87    2905728.8 
   50000         12.5    3822.1045    2852589.6   -822960.94    221454.54    -601506.4    2900477.6 
Loop time of 2698.12 on 96 procs for 50000 steps with 448248 atoms

Performance: 0.400 ns/day, 59.958 hours/ns, 18.531 timesteps/s
100.0% CPU use with 96 MPI tasks x 1 OpenMP threads

MPI task timing breakdown:
Section |  min time  |  avg time  |  max time  |%varavg| %total
---------------------------------------------------------------
Pair    | 1177.5     | 1481.9     | 2607.7     |1046.6 | 54.92
Neigh   | 14.633     | 17.323     | 19.18      |  31.0 |  0.64
Comm    | 31.448     | 418.98     | 1274.9     |2004.0 | 15.53
Output  | 9.2069     | 9.2081     | 9.272      |   0.2 |  0.34
Modify  | 28.351     | 766.35     | 1276.6     |2004.2 | 28.40
Other   |            | 4.406      |            |       |  0.16

Nlocal:        4669.25 ave        4948 max        4357 min
Histogram: 8 4 5 6 24 12 6 19 7 5
Nghost:        13313.7 ave       14055 max       12610 min
Histogram: 6 11 8 21 11 3 2 19 7 8
Neighs:         0.00000 ave           0 max           0 min
Histogram: 96 0 0 0 0 0 0 0 0 0
FullNghs:  1.59093e+06 ave 1.92205e+06 max      957540 min
Histogram: 12 0 0 0 0 3 33 24 12 12

Total # of neighbors = 1.527289e+08
Ave neighs/atom = 340.72411
Neighbor list builds = 532
Dangerous builds = 0
Total wall time: 0:45:02
