LAMMPS (29 Sep 2021)
  using 1 OpenMP thread(s) per MPI task
Reading restart file ...
  restart file = 29 Sep 2021, LAMMPS = 29 Sep 2021
  restoring atom style atomic from restart
  orthogonal box = (-0.76728588 -0.75687420 0.0000000) to (101.83995 101.82954 611.36700)
  3 by 2 by 16 MPI processor grid
  pair style hybrid/overlay stores no restart info
  432002 atoms
  read_restart CPU = 0.169 seconds
Resetting global fix info from restart file:
  fix style: npt, fix ID: 2

CITE-CITE-CITE-CITE-CITE-CITE-CITE-CITE-CITE-CITE-CITE-CITE-CITE

Your simulation uses code contributions which should be cited:
- @article{cjiang2012
The log file lists these citations in BibTeX format.

CITE-CITE-CITE-CITE-CITE-CITE-CITE-CITE-CITE-CITE-CITE-CITE-CITE

All restart file global fix info was re-assigned
Unused restart file peratom fix info:
  fix style: STORE, fix ID: spatialbins_COMPUTE_STORE
Neighbor list info ...
  update every 1 steps, delay 10 steps, check yes
  max neighbors/atom: 2000, page size: 100000
  master list distance cutoff = 8.28721
  ghost atom cutoff = 8.28721
  binsize = 4.143605, bins = 25 25 148
  3 neighbor lists, perpetual/occasional/extra = 3 0 0
  (1) pair eam/alloy, perpetual, skip from (3)
      attributes: half, newton on
      pair build: skip
      stencil: none
      bin: none
  (2) pair edip/multi, perpetual
      attributes: full, newton on
      pair build: full/bin/atomonly
      stencil: full/bin/3d
      bin: standard
  (3) neighbor class addition, perpetual, half/full from (2)
      attributes: half, newton on
      pair build: halffull/newton
      stencil: none
      bin: none
Setting up Verlet run ...
  Unit style    : metal
  Current step  : 11000074
  Time step     : 0.00025
Per MPI rank memory allocation (min/avg/max) = 4.711 | 11.88 | 17.65 Mbytes
Step Time Temp PotEng E_pair TotEng Press Volume Lx Ly Lz CPULeft 
11000074            0    299.71502   -1834379.7   -1834379.7   -1817643.5   -40.434434    6435315.8    102.60724    102.58642      611.367            0 
11010000       2.4815    300.02837   -1834404.6   -1834404.6   -1817650.9    167.71328    6433685.3    102.59309    102.57457      611.367    26909.512 
11020000       4.9815    298.99878   -1834375.9   -1834375.9   -1817679.7    -111.1732    6435412.8    102.60169    102.59351      611.367    26804.579 
11030000       7.4815    300.00105   -1834396.8   -1834396.8   -1817644.6    17.352309    6435241.7    102.60518     102.5873      611.367    26601.917 
11040000       9.9815    300.03276   -1834389.8   -1834389.8   -1817635.8   -15.970458    6434694.8    102.59771    102.58604      611.367    26334.859 
11050000      12.4815    300.29948   -1834390.2   -1834390.2   -1817621.3    4.7420688    6435734.3    102.60624    102.59409      611.367    26047.064 
11060000      14.9815    299.92755   -1834379.9   -1834379.9   -1817631.8    55.130321      6435966    102.62025    102.58377      611.367    25788.529 
11070000      17.4815    300.15083   -1834379.1   -1834379.1   -1817618.5    38.590189    6435391.6    102.59635    102.59852      611.367    25514.583 
11080000      19.9815    299.73151   -1834386.7   -1834386.7   -1817649.5   -46.063383    6435728.1    102.60919    102.59104      611.367    25232.955 
11090000      22.4815    299.85688   -1834377.5   -1834377.5   -1817633.3    43.201351    6435899.3    102.60788    102.59508      611.367    24962.008 
11100000      24.9815    299.93388   -1834390.8   -1834390.8   -1817642.4   -209.95617    6435670.7    102.61053    102.58879      611.367    24702.225 
11110000      27.4815     300.0657   -1834398.1   -1834398.1   -1817642.3   -82.899524    6435872.4    102.60983     102.5927      611.367    24426.973 
11120000      29.9815    299.90282   -1834388.5   -1834388.5   -1817641.8   -16.984002    6435600.2    102.60277    102.59542      611.367    24143.212 
11130000      32.4815    299.71919   -1834372.9   -1834372.9   -1817636.4   -64.622854    6435026.6    102.61242    102.57663      611.367    23873.865 
11140000      34.9815    300.09489   -1834410.3   -1834410.3   -1817652.9   -141.19872    6435409.3    102.60813    102.58701      611.367    23605.535 
11150000      37.4815    299.96734   -1834388.5   -1834388.5   -1817638.2    48.971581    6435660.2    102.61129    102.58786      611.367    23325.294 
11160000      39.9815    300.59474   -1834409.2   -1834409.2   -1817623.8   -19.275996    6435376.4    102.60185    102.59277      611.367    23050.643 
11170000      42.4815    299.46108   -1834370.7   -1834370.7   -1817648.6    157.77327    6435142.2    102.60245    102.58844      611.367    22782.597 
11180000      44.9815    299.89824   -1834406.9   -1834406.9   -1817660.4   0.46445413      6436496    102.60897     102.6035      611.367    22504.606 
11190000      47.4815    300.07318   -1834387.3   -1834387.3   -1817631.1      57.2263      6435772    102.60137    102.59956      611.367    22227.536 
11200000      49.9815    299.79279   -1834397.3   -1834397.3   -1817656.7    83.888724    6436445.5    102.61987     102.5918      611.367    21956.973 
11210000      52.4815    300.03336   -1834414.2   -1834414.2   -1817660.2   -87.335203    6437050.6    102.62487    102.59644      611.367    21685.609 
11220000      54.9815    300.37563   -1834410.7   -1834410.7   -1817637.6    105.50827    6434784.3     102.5971    102.58809      611.367    21409.121 
11230000      57.4815    299.58747   -1834392.9   -1834392.9   -1817663.8   -96.083827    6435728.3    102.61194    102.58829      611.367    21136.183 
11240000      59.9815    299.69015   -1834377.9   -1834377.9   -1817643.1    163.36794    6434772.9    102.60407    102.58094      611.367    20865.648 
11250000      62.4815    300.50972   -1834426.8   -1834426.8   -1817646.2   -111.75925    6435002.2    102.60457    102.58409      611.367     20589.83 
11260000      64.9815    300.28165   -1834409.6   -1834409.6   -1817641.7   -8.1776973    6435895.5    102.60877    102.59413      611.367    20314.023 
11270000      67.4815    299.79983   -1834415.1   -1834415.1   -1817674.2    44.682178      6435713    102.60823    102.59176      611.367    20038.832 
11280000      69.9815    299.55512   -1834395.9   -1834395.9   -1817668.6    59.427053    6436244.5    102.61367     102.5948      611.367    19765.406 
11290000      72.4815    299.45965   -1834376.4   -1834376.4   -1817654.4    32.450522    6436447.5    102.61409     102.5976      611.367     19491.66 
11300000      74.9815    299.77434   -1834409.2   -1834409.2   -1817669.7    78.148184    6436917.2    102.61445    102.60474      611.367    19218.206 
11310000      77.4815    299.80384   -1834402.9   -1834402.9   -1817661.7    19.136466    6436224.1    102.60213    102.60601      611.367    18943.723 
11320000      79.9815    299.50645   -1834365.6   -1834365.6     -1817641    33.891744    6436317.4    102.62267    102.58696      611.367    18668.127 
11330000      82.4815    300.06541   -1834406.2   -1834406.2   -1817650.4   -127.15061    6436730.6     102.6256    102.59061      611.367    18392.536 
11340000      84.9815    300.77492   -1834411.5   -1834411.5     -1817616    -58.64277    6435050.8    102.59743      102.592      611.367    18117.828 
11350000      87.4815    300.00791   -1834400.9   -1834400.9   -1817648.3   -133.29842    6435597.1    102.61079    102.58736      611.367    17845.278 
11360000      89.9815    299.92409   -1834403.3   -1834403.3   -1817655.3   -134.64146    6435566.5    102.61169    102.58596      611.367     17571.06 
11370000      92.4815    300.04759   -1834379.9   -1834379.9     -1817625    78.784484    6434281.4    102.59405    102.58311      611.367    17295.457 
11380000      94.9815    299.94941   -1834393.9   -1834393.9   -1817644.6    61.684273    6435030.1    102.60506    102.58404      611.367    17020.342 
11390000      97.4815    300.34201   -1834420.3   -1834420.3     -1817649   -121.38725    6436368.5    102.61243    102.59801      611.367    16747.183 
11400000      99.9815    299.98379   -1834404.5   -1834404.5   -1817653.3    6.1541277    6436034.2    102.60681     102.5983      611.367    16472.838 
11410000     102.4815    300.28984   -1834421.1   -1834421.1   -1817652.7    61.133594    6436647.3    102.62048    102.59441      611.367    16198.368 
11420000     104.9815    299.95212   -1834391.6   -1834391.6   -1817642.1    44.352088    6436802.3    102.61753    102.59983      611.367     15923.54 
11430000     107.4815    300.29856   -1834417.8   -1834417.8     -1817649    44.456054    6435739.4    102.60391     102.5965      611.367    15648.839 
11440000     109.9815    299.64387   -1834410.4   -1834410.4   -1817678.1    36.488228    6436217.6    102.61866    102.58938      611.367    15374.363 
11450000     112.4815    300.11871   -1834398.5   -1834398.5   -1817639.7   -66.742637    6436108.4    102.61409     102.5922      611.367    15099.164 
11460000     114.9815    300.14393   -1834394.6   -1834394.6   -1817634.4   -86.524194    6435127.5    102.60311    102.58755      611.367     14823.92 
11470000     117.4815    300.25137   -1834412.4   -1834412.4   -1817646.3    4.4867571    6434961.6    102.60459    102.58342      611.367    14548.816 
11480000     119.9815    300.20493     -1834387     -1834387   -1817623.4   -67.220883      6435452    102.60476    102.59107      611.367    14274.159 
11490000     122.4815    300.11293   -1834419.8   -1834419.8   -1817661.3   -28.247154    6435073.2     102.5974    102.59239      611.367    13998.701 
11500000     124.9815    299.82879   -1834407.7   -1834407.7   -1817665.1   -61.123451    6435849.9    102.60935    102.59282      611.367    13724.268 
11510000     127.4815    299.62105   -1834395.3   -1834395.3   -1817664.3   -100.20891    6436590.6    102.60921    102.60477      611.367    13449.969 
11520000     129.9815    300.27774   -1834381.2   -1834381.2   -1817613.6    24.319318    6436146.8    102.61082    102.59609      611.367    13175.591 
11530000     132.4815    300.33118   -1834404.3   -1834404.3   -1817633.7   -38.223625    6436838.2    102.61464    102.60329      611.367    12900.676 
11540000     134.9815    299.66191   -1834388.9   -1834388.9   -1817655.7    199.51356    6436301.2    102.61707     102.5923      611.367    12625.383 
11550000     137.4815    300.12528   -1834400.7   -1834400.7   -1817641.5    71.983889    6436264.7    102.60603    102.60276      611.367    12351.021 
11560000     139.9815    300.02529   -1834392.3   -1834392.3   -1817638.7    -105.2241    6436898.4    102.60998     102.6089      611.367    12076.427 
11570000     142.4815    300.00001     -1834415     -1834415   -1817662.8    87.226148    6435098.2    102.60018       102.59      611.367    11801.435 
11580000     144.9815    300.03608   -1834380.2   -1834380.2     -1817626    40.260745    6434996.9    102.60483    102.58374      611.367    11526.233 
11590000     147.4815    300.13016   -1834410.8   -1834410.8   -1817651.4    27.985964    6434717.8    102.60167    102.58245      611.367    11251.692 
11600000     149.9815    299.88705   -1834402.3   -1834402.3   -1817656.4   -261.32773    6435262.9    102.60821    102.58461      611.367    10976.697 
11610000     152.4815    299.72304     -1834396     -1834396   -1817659.3   -48.518657    6434875.5    102.60086    102.58577      611.367     10701.42 
11620000     154.9815    299.79372   -1834377.4   -1834377.4   -1817636.8   -4.3671198      6436335    102.61531    102.59459      611.367    10426.682 
11630000     157.4815    299.84857   -1834387.7   -1834387.7     -1817644   -28.217673    6436579.4    102.61604    102.59776      611.367    10152.226 
11640000     159.9815    300.02777   -1834412.2   -1834412.2   -1817658.5    50.614944    6436692.7    102.61772    102.59789      611.367    9877.2785 
11650000     162.4815    299.58409   -1834428.6   -1834428.6   -1817699.6   -225.73662    6438123.6    102.62449    102.61393      611.367    9602.5864 
11660000     164.9815    299.91235   -1834392.5   -1834392.5   -1817645.2   -98.591916    6437757.3    102.62573    102.60685      611.367    9328.4135 
11670000     167.4815    299.69154   -1834407.7   -1834407.7   -1817672.8    63.145298    6437328.6     102.6283    102.59745      611.367    9053.8407 
11680000     169.9815    300.36404   -1834419.5   -1834419.5     -1817647   -11.890777      6436747    102.61177     102.6047      611.367    8779.3459 
11690000     172.4815     300.2811   -1834409.5   -1834409.5   -1817641.6   -13.435605    6436365.7     102.6137    102.59669      611.367    8504.7101 
11700000     174.9815    299.93125   -1834409.6   -1834409.6   -1817661.3   -87.612021    6435597.2     102.6127    102.58544      611.367     8230.744 
11710000     177.4815     299.6335   -1834373.8   -1834373.8   -1817642.1    77.394863    6435234.2    102.60617    102.58619      611.367     7956.411 
11720000     179.9815    299.98083   -1834412.1   -1834412.1     -1817661   -28.601207    6435989.8    102.61117    102.59323      611.367     7681.948 
11730000     182.4815    300.45974   -1834394.9   -1834394.9   -1817617.1   -67.330987    6436450.1    102.61443    102.59731      611.367    7407.7399 
11740000     184.9815    300.20504   -1834407.9   -1834407.9   -1817644.3     189.8085      6435689    102.61158    102.58803      611.367    7133.9252 
11750000     187.4815    300.27742   -1834419.6   -1834419.6     -1817652    88.328319    6436721.1    102.61803    102.59803      611.367     6859.902 
11760000     189.9815    299.71151     -1834413     -1834413     -1817677    105.65973    6437452.2    102.62817    102.59955      611.367    6585.2915 
11770000     192.4815    300.31453   -1834419.9   -1834419.9   -1817650.2    118.18711    6437111.8    102.62175    102.60054      611.367    6311.0357 
11780000     194.9815    299.73207   -1834402.4   -1834402.4   -1817665.2    178.83576      6437153     102.6223    102.60065      611.367    6036.7006 
11790000     197.4815    300.05354   -1834420.4   -1834420.4   -1817665.3    2.1954795    6437118.1    102.61978    102.60261      611.367    5762.6901 
11800000     199.9815    299.73419   -1834398.7   -1834398.7   -1817661.4     85.87055    6436828.8    102.61497    102.60281      611.367    5488.2228 
11810000     202.4815    299.54466   -1834389.6   -1834389.6   -1817662.8   -128.13163    6437130.7    102.61317    102.60942      611.367    5214.0933 
11820000     204.9815    300.15295     -1834411     -1834411   -1817650.3   -1.2213271    6435833.9    102.61216    102.58976      611.367    4939.7941 
11830000     207.4815    300.32713   -1834392.1   -1834392.1   -1817621.6   -61.738724    6436157.6    102.61158     102.5955      611.367    4665.3096 
11840000     209.9815    299.96154   -1834401.8   -1834401.8   -1817651.8   -33.074799    6436133.3    102.62075    102.58595      611.367    4390.8868 
11850000     212.4815    299.83329   -1834427.8   -1834427.8   -1817684.9   -135.60841    6436624.9    102.62493     102.5896      611.367     4116.685 
11860000     214.9815    299.76247   -1834423.9   -1834423.9     -1817685   -67.668655    6437209.9    102.61988    102.60397      611.367    3842.4406 
11870000     217.4815    299.98793   -1834399.3   -1834399.3   -1817647.8    19.206191    6436976.5    102.61713      102.603      611.367    3568.0306 
11880000     219.9815    300.57178   -1834417.7   -1834417.7   -1817633.6    51.909725    6437431.2    102.62906    102.59832      611.367    3293.6896 
11890000     222.4815    300.40109   -1834392.7   -1834392.7   -1817618.2   -24.053033    6438186.5    102.63444    102.60498      611.367    3019.3806 
11900000     224.9815     299.4992   -1834387.4   -1834387.4   -1817663.2    7.5617133    6437877.8    102.62599     102.6085      611.367     2744.974 
11910000     227.4815    300.23851   -1834394.4   -1834394.4   -1817628.9    63.593158    6436883.6    102.61991    102.59874      611.367     2470.655 
11920000     229.9815    300.16539   -1834441.1   -1834441.1   -1817679.7   -82.438553    6437524.6    102.62172    102.60715      611.367     2196.386 
11930000     232.4815    299.82334   -1834406.2   -1834406.2     -1817664    99.568525    6436223.2    102.61914    102.58898      611.367    1922.0627 
11940000     234.9815    299.66872   -1834405.9   -1834405.9   -1817672.2    101.49982    6436280.3    102.60771    102.60132      611.367    1647.7107 
11950000     237.4815    299.79086   -1834395.9   -1834395.9   -1817655.4   -5.1219786      6437103    102.62114    102.60101      611.367    1373.4292 
11960000     239.9815    299.54171     -1834402     -1834402   -1817675.4    142.08316    6436060.2    102.60905    102.59647      611.367    1099.1439 
11970000     242.4815    299.37391   -1834386.7   -1834386.7   -1817669.5   -145.62875    6437077.5    102.61929    102.60245      611.367    824.83878 
11980000     244.9815    299.90891   -1834414.1   -1834414.1   -1817667.1    123.50775    6436631.1     102.6195    102.59513      611.367    550.55285 
11990000     247.4815    300.08436   -1834424.4   -1834424.4   -1817667.5   -26.102526    6437493.7    102.61443    102.61395      611.367     276.2941 
12000000     249.9815    299.52008   -1834383.7   -1834383.7   -1817658.3     23.14779    6437706.3    102.63225    102.59952      611.367    2.0295737 
12000074          250    300.26295   -1834411.8   -1834411.8   -1817644.9    145.77525    6437671.7    102.63039    102.60082      611.367            0 
Loop time of 27426.7 on 96 procs for 1000000 steps with 432002 atoms

Performance: 0.788 ns/day, 30.474 hours/ns, 36.461 timesteps/s
100.0% CPU use with 96 MPI tasks x 1 OpenMP threads

MPI task timing breakdown:
Section |  min time  |  avg time  |  max time  |%varavg| %total
---------------------------------------------------------------
Pair    | 2.7972     | 18691      | 26233      |5498.1 | 68.15
Neigh   | 0.011028   | 60.559     | 92.707     | 367.4 |  0.22
Comm    | 1.8771     | 3838.8     | 10076      |4962.3 | 14.00
Output  | 1.9019     | 1.9037     | 1.9296     |   0.2 |  0.01
Modify  | 518.19     | 4753.6     | 27311      |12398.3 | 17.33
Other   |            | 80.75      |            |       |  0.29

Nlocal:        4500.02 ave        6305 max           0 min
Histogram: 12 0 0 0 11 1 0 23 18 31
Nghost:        8189.57 ave       11276 max           0 min
Histogram: 12 0 0 0 4 8 0 0 49 23
Neighs:         0.00000 ave           0 max           0 min
Histogram: 96 0 0 0 0 0 0 0 0 0
FullNghs:      864739.0 ave 1.32543e+06 max           0 min
Histogram: 12 0 0 12 0 12 12 12 10 26

Total # of neighbors = 83014950
Ave neighs/atom = 192.16335
Neighbor list builds = 2570
Dangerous builds = 0
System init for write_restart ...
System init for write_data ...
Total wall time: 7:37:07
