LAMMPS (29 Sep 2021)
  using 1 OpenMP thread(s) per MPI task
Reading data file ...
  orthogonal box = (0.60786045 0.61968883 0.0000000) to (100.63922 100.62740 541.67200)
  3 by 2 by 16 MPI processor grid
  reading atoms ...
  437300 atoms
  reading velocities ...
  437300 velocities
  read_data CPU = 4.532 seconds
218650 atoms in group g_left
218650 atoms in group g_right

CITE-CITE-CITE-CITE-CITE-CITE-CITE-CITE-CITE-CITE-CITE-CITE-CITE

Your simulation uses code contributions which should be cited:
- @article{cjiang2012
The log file lists these citations in BibTeX format.

CITE-CITE-CITE-CITE-CITE-CITE-CITE-CITE-CITE-CITE-CITE-CITE-CITE

Neighbor list info ...
  update every 1 steps, delay 10 steps, check yes
  max neighbors/atom: 2000, page size: 100000
  master list distance cutoff = 8.28721
  ghost atom cutoff = 8.28721
  binsize = 4.143605, bins = 25 25 131
  3 neighbor lists, perpetual/occasional/extra = 3 0 0
  (1) pair eam/alloy, perpetual, skip from (3)
      attributes: half, newton on
      pair build: skip
      stencil: none
      bin: none
  (2) pair edip/multi, perpetual
      attributes: full, newton on
      pair build: full/bin/atomonly
      stencil: full/bin/3d
      bin: standard
  (3) neighbor class addition, perpetual, half/full from (2)
      attributes: half, newton on
      pair build: halffull/newton
      stencil: none
      bin: none
Setting up Verlet run ...
  Unit style    : metal
  Current step  : 0
  Time step     : 0.00025
Per MPI rank memory allocation (min/avg/max) = 10.07 | 12.34 | 14.51 Mbytes
Step Time Temp Press PotEng KinEng TotEng Volume 
       0            0    17405.799    190549.62   -2025958.9    983868.58   -1042090.3    5418836.5 
     100        0.025    17403.599    191248.53   -2025991.3    983744.22   -1042247.1    5403830.6 
     200         0.05    17403.364    191504.09     -2025991    983730.92   -1042260.1    5388824.7 
     300        0.075     17404.14    192020.51   -2025966.6    983774.79   -1042191.8    5373818.9 
     400          0.1    17403.767    192726.48   -2025949.3    983753.69   -1042195.7      5358813 
     500        0.125    17403.099    193088.27   -2025982.9    983715.98   -1042266.9    5343807.2 
     600         0.15    17402.583     193604.1   -2025976.8    983686.78   -1042290.1    5328801.3 
     700        0.175    17403.167     193902.8     -2025967    983719.77   -1042247.2    5313795.4 
     800          0.2    17403.681    194706.46   -2025979.8    983748.87   -1042230.9    5298789.6 
     900        0.225    17402.688    195033.37     -2025965    983692.72   -1042272.3    5283783.7 
    1000         0.25    17402.467    195742.98   -2025975.5    983680.25   -1042295.2    5268777.9 
    1100        0.275    17402.762    196559.22   -2025967.3    983696.93   -1042270.4      5253772 
    1200          0.3    17403.541    197073.57   -2026011.5    983740.93   -1042270.6    5238766.1 
    1300        0.325    17401.836    197273.53   -2025970.1    983644.54   -1042325.5    5223760.3 
    1400         0.35    17401.178    198180.39   -2025967.8    983607.38   -1042360.4    5208754.4 
    1500        0.375    17401.948    198794.21   -2025981.3    983650.92   -1042330.3    5193748.5 
    1600          0.4    17402.576    199252.07   -2025981.8    983686.36   -1042295.5    5178742.7 
    1700        0.425    17402.128    201039.31   -2025967.9    983661.09   -1042306.8    5163736.8 
    1800         0.45    17346.487    212928.05   -2022830.9    980515.95   -1042314.9      5148731 
    1900        0.475    17117.016    251969.52   -2009823.1       967545   -1042278.1    5133725.1 
    2000          0.5    16834.213    294913.14   -1993804.5    951559.49     -1042245    5118719.2 
    2100        0.525    16568.169    327281.22   -1978767.1    936521.27   -1042245.8    5103713.4 
    2200         0.55    16324.475    353758.96   -1964990.3    922746.36     -1042244    5088707.5 
    2300        0.575    16100.176    375954.06   -1952279.3    910067.82   -1042211.5    5073701.7 
    2400          0.6    15901.505    388004.57   -1941011.9    898837.83   -1042174.1    5058695.8 
    2500        0.625    15746.873    388841.59   -1932260.6    890097.22   -1042163.3    5043689.9 
    2600         0.65    15649.612    387391.41   -1926756.1     884599.5   -1042156.6    5028684.1 
    2700        0.675    15584.664    383678.07   -1923047.3    880928.31     -1042119    5013678.2 
    2800          0.7    15550.757    378210.32   -1921087.1    879011.73   -1042075.4    4998672.4 
    2900        0.725     15535.12    372961.92   -1920206.6    878127.82   -1042078.8    4983666.5 
    3000         0.75    15526.424    367189.06   -1919754.4    877636.26   -1042118.1    4968660.6 
    3100        0.775    15522.174    362313.82   -1919534.7    877396.02   -1042138.7    4953654.8 
    3200          0.8    15510.024    356848.84   -1918833.1    876709.23   -1042123.9    4938648.9 
    3300        0.825    15492.872    354171.44   -1917848.8    875739.76   -1042109.1    4923643.1 
    3400         0.85    15458.881    352036.57   -1915930.1     873818.4   -1042111.7    4908637.2 
    3500        0.875    15416.416    350895.15   -1913518.7    871418.06   -1042100.6    4893631.3 
    3600          0.9    15368.748    351022.31   -1910809.3     868723.6   -1042085.7    4878625.5 
    3700        0.925    15317.704    347873.17   -1907936.8    865838.28   -1042098.6    4863619.6 
    3800         0.95    15241.769    348843.35   -1903669.3    861546.07   -1042123.2    4848613.7 
    3900        0.975    15088.922    355618.91   -1895023.8    852906.35   -1042117.4    4833607.9 
    4000            1    14925.468    358603.22   -1885742.2    843667.03   -1042075.2      4818602 
    4100        1.025    14744.221    361393.25   -1875464.6    833421.98   -1042042.6    4803596.2 
    4200         1.05    14582.268    368109.27   -1866326.6    824267.52     -1042059    4788590.3 
    4300        1.075    14410.657    371578.13   -1856649.6    814567.15   -1042082.5    4773584.4 
    4400          1.1    14241.806    378720.06   -1847090.5    805022.79   -1042067.7    4758578.6 
    4500        1.125    14096.886    388562.46   -1838867.2    796831.19     -1042036    4743572.7 
    4600         1.15    13947.977    400293.65   -1830429.1    788414.04   -1042015.1    4728566.9 
    4700        1.175     13804.49    412021.56   -1822293.3    780303.38   -1041989.9      4713561 
    4800          1.2    13674.769    424782.87   -1814909.1    772970.85   -1041938.3    4698555.1 
    4900        1.225    13554.938    437575.08   -1808089.3    766197.37   -1041891.9    4683549.3 
    5000         1.25    13445.735    448355.49   -1801914.2    760024.64   -1041889.6    4668543.4 
    5100        1.275    13346.239    462518.92   -1796333.5    754400.61   -1041932.9    4653537.6 
    5200          1.3    13253.123    473892.78   -1791111.3    749137.16   -1041974.2    4638531.7 
    5300        1.325    13164.687    489136.29   -1786111.4    744138.33     -1041973    4623525.8 
    5400         1.35    13080.749    502348.23     -1781362    739393.68   -1041968.4      4608520 
    5500        1.375    12994.034    514147.91   -1776472.9     734492.1   -1041980.8    4593514.1 
    5600          1.4    12908.043    529047.71   -1771628.6    729631.42   -1041997.1    4578508.3 
    5700        1.425    12812.711    542176.41   -1766238.2    724242.75   -1041995.5    4563502.4 
    5800         1.45    12713.704    557328.12   -1760627.9    718646.31   -1041981.5    4548496.5 
    5900        1.475    12599.268    573828.24   -1754162.2    712177.79   -1041984.4    4533490.7 
    6000          1.5    12487.219    587198.78   -1747827.4    705844.21   -1041983.2    4518484.8 
    6100        1.525    12360.284    604122.68   -1740634.9    698669.17   -1041965.7    4503478.9 
    6200         1.55    12232.132    620983.58   -1733383.4    691425.34   -1041958.1    4488473.1 
    6300        1.575    12086.175    634965.85   -1725161.5    683175.05   -1041986.5    4473467.2 
    6400          1.6    11947.057    649462.53   -1717338.8    675311.36   -1042027.4    4458461.4 
    6500        1.625      11808.9    663185.32   -1709539.2    667501.99   -1042037.2    4443455.5 
    6600         1.65    11667.511    674066.12   -1701527.1    659509.94   -1042017.2    4428449.6 
    6700        1.675    11530.867    683475.93   -1693792.8    651786.08   -1042006.7    4413443.8 
    6800          1.7    11396.959    691916.34   -1686225.6     644216.9   -1042008.7    4398437.9 
    6900        1.725    11384.878    698761.79   -1685515.3    643534.02   -1041981.3    4383432.1 
    7000         1.75    11312.262    696484.29   -1681343.7    639429.39   -1041914.3    4368426.2 
    7100        1.775    11192.536    695325.26   -1674526.7     632661.8   -1041864.9    4353420.3 
    7200          1.8    11142.633    697695.67   -1671722.2    629841.01   -1041881.2    4338414.5 
    7300        1.825    11110.881    701621.41   -1669968.7    628046.27   -1041922.4    4323408.6 
    7400         1.85    10979.001    705561.07   -1662535.3    620591.68   -1041943.6    4308402.8 
    7500        1.875    10947.879    706553.56   -1660769.8    618832.51   -1041937.3    4293396.9 
    7600          1.9    10855.881    710959.51   -1655564.4     613632.3   -1041932.1      4278391 
    7700        1.925    10717.311    716238.43   -1647734.2    605799.55   -1041934.7    4263385.2 
    7800         1.95    10678.201    724220.14   -1645507.6    603588.84   -1041918.8    4248379.3 
    7900        1.975    10557.927    730998.79   -1638677.3    596790.32     -1041887    4233373.5 
    8000            2    10469.228    738049.72   -1633659.9    591776.61   -1041883.3    4218367.6 
    8100        2.025    10360.025     749953.4     -1627521    585603.87   -1041917.2    4203361.7 
    8200         2.05    10294.325    754908.65     -1623854    581890.15   -1041963.8    4188355.9 
    8300        2.075    10118.762    761468.21   -1613972.7    571966.36   -1042006.3      4173350 
    8400          2.1    10107.496    771967.74   -1613371.4    571329.55   -1042041.8    4158344.1 
    8500        2.125     10005.78    781317.97   -1607658.1    565580.03   -1042078.1    4143338.3 
    8600         2.15    9941.7453    787443.09   -1604066.8    561960.45   -1042106.4    4128332.4 
    8700        2.175    9860.9847    795973.34   -1599517.9    557395.44   -1042122.5    4113326.6 
    8800          2.2    9804.2269    806973.69   -1596322.7    554187.18   -1042135.5    4098320.7 
    8900        2.225    9739.3485    818993.29   -1592656.6    550519.91   -1042136.7    4083314.8 
    9000         2.25     9658.316    830855.09   -1588065.1    545939.52   -1042125.5      4068309 
    9100        2.275    9587.7345    840985.66   -1584071.5    541949.88   -1042121.7    4053303.1 
    9200          2.3     9497.563     853052.9   -1578992.5     536852.9   -1042139.6    4038297.3 
    9300        2.325    9383.9547    867185.68   -1572604.7    530431.15   -1042173.5    4023291.4 
    9400         2.35    9268.5204    876646.79   -1566100.8    523906.19   -1042194.6    4008285.5 
    9500        2.375    9148.1566    891724.22   -1559301.1    517102.59   -1042198.6    3993279.7 
    9600          2.4    9020.4325     902289.1   -1552089.2    509882.95   -1042206.3    3978273.8 
    9700        2.425     8887.927     916767.9     -1544628    502393.03     -1042235      3963268 
    9800         2.45    8759.8505    922929.51   -1537412.7    495153.46   -1042259.3    3948262.1 
    9900        2.475    8621.5608    933784.74   -1529593.5    487336.59   -1042256.9    3933256.2 
   10000          2.5    8481.6005    944738.01   -1521648.8    479425.29   -1042223.5    3918250.4 
   10100        2.525    8330.3108    952684.16   -1513062.3    470873.59   -1042188.7    3903244.5 
   10200         2.55    8173.1854    963378.28   -1504160.6    461992.02   -1042168.6    3888238.6 
   10300        2.575    8004.6005    973668.95   -1494623.6     452462.7   -1042160.9    3873232.8 
   10400          2.6    7831.1261     988771.7   -1484826.4    442657.01   -1042169.4    3858226.9 
   10500        2.625    7661.8035    999954.97   -1475256.3    433085.99   -1042170.3    3843221.1 
   10600         2.65     7496.583    1014532.2   -1465896.1    423746.85   -1042149.3    3828215.2 
   10700        2.675       7323.9    1028598.9   -1456093.3    413985.88   -1042107.4    3813209.3 
   10800          2.7    7145.3995    1049213.1   -1445985.8    403896.08   -1042089.8    3798203.5 
   10900        2.725     6974.744    1064813.8   -1436357.9    394249.72   -1042108.2    3783197.6 
   11000         2.75    6796.0383    1078109.1   -1426277.4    384148.32   -1042129.1    3768191.8 
   11100        2.775    6617.1665    1093798.7   -1416173.7    374037.53   -1042136.2    3753185.9 
   11200          2.8    6444.2322    1109706.3   -1406400.4    364262.36   -1042138.1      3738180 
   11300        2.825    6275.4683    1125171.6   -1396872.5    354722.93   -1042149.6    3723174.2 
   11400         2.85    6100.7923    1145995.5   -1387005.5    344849.31   -1042156.2    3708168.3 
   11500        2.875    5965.5544      1157907   -1379353.2    337204.95   -1042148.2    3693162.5 
   11600          2.9    5877.4324    1175250.1   -1374376.4    332223.82   -1042152.6    3678156.6 
   11700        2.925    5756.8606    1190353.7   -1367597.1    325408.46   -1042188.6    3663150.7 
   11800         2.95     5666.641    1202773.1   -1362529.1    320308.77   -1042220.3    3648144.9 
   11900        2.975    5642.5421    1218237.8   -1361162.2    318946.57   -1042215.6      3633139 
   12000            3    5594.0105      1230549   -1358396.7     316203.3   -1042193.4    3618133.2 
   12100        3.025    5589.6343    1241018.3   -1358148.3    315955.93   -1042192.3    3603127.3 
   12200         3.05    5557.3814    1252021.9   -1356336.6    314132.83   -1042203.7    3588121.4 
   12300        3.075     5564.951    1259479.8   -1356760.1     314560.7   -1042199.4    3573115.6 
   12400          3.1    5555.6423    1268887.8   -1356219.6    314034.53     -1042185    3558109.7 
   12500        3.125    5564.5301    1279718.7   -1356712.8    314536.91   -1042175.9    3543103.8 
   12600         3.15    5596.7468    1286760.1   -1358542.4    316357.97   -1042184.5      3528098 
   12700        3.175    5586.5917      1298930   -1357981.1    315783.95   -1042197.2    3513092.1 
   12800          3.2    5612.9828    1303051.3   -1359469.5    317275.72   -1042193.8    3498086.3 
   12900        3.225     5577.418    1313175.2     -1357444    315265.41   -1042178.6    3483080.4 
   13000         3.25    5523.2555    1329273.5   -1354373.9    312203.85     -1042170    3468074.5 
   13100        3.275    5425.3717    1337294.8   -1348846.3    306670.93   -1042175.4    3453068.7 
   13200          3.3    5339.3184    1349581.6   -1344003.8    301806.74     -1042197    3438062.8 
   13300        3.325    5250.3101    1363469.4   -1339001.9    296775.52   -1042226.4      3423057 
   13400         3.35    5146.3487    1374809.4   -1333144.2    290899.07   -1042245.1    3408051.1 
   13500        3.375    5038.5892    1385129.1     -1327067    284807.93     -1042259    3393045.2 
   13600          3.4    4930.7585    1400353.5   -1320991.5    278712.76   -1042278.7    3378039.4 
   13700        3.425    4810.4118    1412280.8   -1314224.3    271910.13   -1042314.2    3363033.5 
   13800         3.45    4686.4098    1429670.3   -1307239.3    264900.87   -1042338.4    3348027.7 
   13900        3.475    4542.6396    1449973.9     -1299094    256774.21   -1042319.8    3333021.8 
   14000          3.5    4403.5455      1467202   -1291194.1    248911.87   -1042282.2    3318015.9 
   14100        3.525    4249.0438    1485653.5   -1282455.2    240178.61   -1042276.6    3303010.1 
   14200         3.55    4087.7685    1505292.3   -1273343.5    231062.47     -1042281    3288004.2 
   14300        3.575    3924.5097      1533071   -1263996.8    221834.21   -1042162.6    3272998.4 
   14400          3.6    3773.4324    1555050.1   -1254554.8    213294.52   -1041260.3    3257992.5 
   14500        3.625    3763.0761    1600093.7   -1226749.5    212709.12   -1014040.4    3242986.6 
   14600         3.65    4378.4274    1646895.6     -1206649    247492.07   -959156.93    3227980.8 
   14700        3.675    4716.3038    1694951.7   -1179912.3    266590.64   -913321.61    3212974.9 
   14800          3.7    4463.1559    1750907.6   -1144720.8    252281.37   -892439.47      3197969 
   14900        3.725    4670.3392    1806098.2   -1109848.1    263992.48   -845855.58    3182963.2 
   15000         3.75    5233.0667    1874471.7   -1078039.5    295800.83   -782238.64    3167957.3 
   15100        3.775    5351.3545    1926060.5   -1040220.6    302487.09   -737733.55    3152951.5 
   15200          3.8    5626.1207    1986374.4   -1009099.8    318018.34   -691081.45    3137945.6 
   15300        3.825    6163.4809    2050985.5   -977104.26    348392.81   -628711.46    3122939.7 
   15400         3.85    6753.2104    2102149.5   -950619.31    381727.46   -568891.85    3107933.9 
   15500        3.875    7176.5903    2151379.8   -923924.15    405659.15   -518264.99      3092928 
   15600          3.9    7654.5017    2203828.2   -895156.76    432673.25   -462483.51    3077922.2 
   15700        3.925    8039.7457    2270857.4   -859990.93     454449.3   -405541.63    3062916.3 
   15800         3.95    8258.3686    2329687.9   -825547.66    466807.03   -358740.63    3047910.4 
   15900        3.975    8377.9542    2382937.9   -790054.56    473566.65   -316487.92    3032904.6 
   16000            4    8529.1285    2433871.9   -758717.07    482111.82   -276605.25    3017898.7 
   16100        4.025    8662.9311    2481240.3   -729611.94    489675.06   -239936.88    3002892.9 
   16200         4.05    8879.2192      2523864   -704756.82    501900.81   -202856.01      2987887 
   16300        4.075    9252.8373    2576433.1   -682462.02     523019.7   -159442.32    2972881.1 
   16400          4.1    9777.6337    2622494.5   -661714.16    552683.99   -109030.17    2957875.3 
   16500        4.125    10432.082    2671383.4    -641802.9     589676.9   -52126.001    2942869.4 
   16600         4.15    11184.029    2725072.9   -623086.76    632180.93    9094.1762    2927863.6 
   16700        4.175    11997.783    2778134.4   -607563.26    678178.64    70615.383    2912857.7 
   16800          4.2    12716.341    2821018.9   -589951.47    718795.41    128843.93    2897851.8 
   16900        4.225    13488.399      2867252   -573985.53    762436.22    188450.69      2882846 
   17000         4.25    14282.675    2917225.1   -557008.52    807332.97    250324.44    2867840.1 
   17100        4.275    14999.472    2965588.4   -538611.84    847850.14     309238.3    2852834.2 
   17200          4.3    15682.664    3009844.6   -521490.06    886467.78    364977.72    2837828.4 
   17300        4.325    16317.296    3060409.2   -504751.47    922340.59    417589.12    2822822.5 
   17400         4.35    16861.065    3105271.5   -485941.01    953077.28    467136.27    2807816.7 
   17500        4.375    17233.981    3161590.9   -461461.95     974156.5    512694.55    2792810.8 
   17600          4.4    17476.926    3226849.4   -432306.33    987889.06    555582.73    2777804.9 
   17700        4.425    17642.196    3297814.9   -400205.77    997230.99    597025.21    2762799.1 
   17800         4.45    17728.651    3368597.9   -364919.36    1002117.9    637198.55    2747793.2 
   17900        4.475    17789.279    3445501.4    -328738.4    1005544.9    676806.53    2732787.4 
   18000          4.5    17810.049    3519795.7   -290645.85    1006718.9    716073.09    2717781.5 
   18100        4.525    17792.179    3594986.3   -251515.68    1005708.8    754193.17    2702775.6 
   18200         4.55    17745.991    3669438.1   -211525.27      1003098    791572.78    2687769.8 
   18300        4.575    17659.529    3742780.6   -170485.71    998210.72    827725.01    2672763.9 
   18400          4.6    17619.133    3818153.2   -132087.59    995927.36    863839.77    2657758.1 
   18500        4.625    17581.043    3895802.6   -93880.911    993774.29    899893.38    2642752.2 
   18600         4.65    17564.458    3972811.2   -57264.383    992836.82    935572.44    2627746.3 
   18700        4.675    17605.696    4051556.8   -23358.175    995167.82    971809.65    2612740.5 
   18800          4.7    17707.788    4121124.3    7856.8967    1000938.6    1008795.5    2597734.6 
   18900        4.725    17895.003    4182694.9     34103.06      1011521    1045624.1    2582728.7 
   19000         4.75    18158.427    4248318.5    55612.035    1026411.1    1082023.2    2567722.9 
   19100        4.775    18519.064    4299961.5    71143.657    1046796.2    1117939.9      2552717 
   19200          4.8    18915.491    4349039.6    83618.106    1069204.4    1152822.5    2537711.2 
   19300        4.825    19262.693    4403383.7    97637.352    1088830.1    1186467.5    2522705.3 
   19400         4.85    19631.783      4463666    110150.46    1109693.1    1219843.5    2507699.4 
   19500        4.875    19961.377    4569082.6    125966.12    1128323.5    1254289.6    2492693.6 
   19600          4.9    20322.601    4686062.6    143378.51    1148741.8    1292120.3    2477687.7 
   19700        4.925    20718.806    4791978.8    163777.57    1171137.4    1334914.9    2462681.9 
   19800         4.95    21189.084    4901716.4    186648.88      1197720    1384368.9      2447676 
   19900        4.975    21778.127    5033438.9    207704.96    1231015.8    1438720.8    2432670.1 
   20000            5    22311.807    5163793.1    232810.45    1261182.3    1493992.8    2417664.3 
   20100        5.025    22770.067    5309306.8    263552.62    1287085.6    1550638.2    2402658.4 
   20200         5.05    23047.669    5484874.8    305452.32    1302777.2    1608229.5    2387652.6 
   20300        5.075     23056.26    5703903.7    363479.25    1303262.7      1666742    2372646.7 
   20400          5.1    22924.689    5925249.2    430963.32    1295825.7      1726789    2357640.8 
   20500        5.125    22723.217    6144610.6    503259.15    1284437.4    1787696.5      2342635 
   20600         5.15    22555.329    6304046.2    573425.86    1274947.5    1848373.3    2327629.1 
   20700        5.175    22443.665    6424376.9    639568.32    1268635.6    1908203.9    2312623.3 
   20800          5.2    22330.502    6534774.4    705158.44    1262239.1    1967397.5    2297617.4 
   20900        5.225    22160.739    6659050.4    773936.19    1252643.2    2026579.3    2282611.5 
   21000         5.25    22026.432    6796733.5    840880.43    1245051.4    2085931.8    2267605.7 
   21100        5.275    21980.446    6941208.3    903784.55      1242452    2146236.5    2252599.8 
   21200          5.3    22025.743    7103221.4    962098.54    1245012.4      2207111    2237593.9 
   21300        5.325    22169.477    7260621.1    1015460.9      1253137      2268598    2222588.1 
   21400         5.35    22352.235    7423506.5    1066569.4    1263467.5    2330036.9    2207582.2 
   21500        5.375    22477.136    7587221.6    1120407.8    1270527.6    2390935.4    2192576.4 
   21600          5.4    22655.326    7733369.5    1169713.7    1280599.8    2450313.5    2177570.5 
   21700        5.425    22734.107    7885851.7    1223090.5    1285052.9    2508143.4    2162564.6 
   21800         5.45    22657.168    8025017.4    1282479.7    1280703.9    2563183.6    2147558.8 
   21900        5.475    22340.547    8174037.2    1352750.8    1262806.8    2615557.6    2132552.9 
   22000          5.5    21757.462    8347784.2      1435292    1229847.7    2665139.7    2117547.1 
   22100        5.525    21005.142    8549460.2    1524585.7    1187322.6    2711908.4    2102541.2 
   22200         5.55    20138.291    8736026.2      1618031    1138323.6    2756354.6    2087535.3 
   22300        5.575    19220.566    8946802.3    1711166.2    1086448.9    2797615.1    2072529.5 
   22400          5.6    18226.924    9156956.8    1806710.5    1030282.9    2836993.4    2057523.6 
   22500        5.625    17282.027    9365025.4      1897747    976872.32    2874619.4    2042517.8 
   22600         5.65    16377.503    9574747.6    1985303.7    925743.82    2911047.5    2027511.9 
   22700        5.675    15668.532    9774486.1    2060998.4       885669    2946667.4      2012506 
   22800          5.7    15249.075    9929691.3    2120730.4    861959.01    2982689.4    1997500.2 
   22900        5.725    14909.507     10102750    2176768.1    842764.83    3019532.9    1982494.3 
   23000         5.75    14651.664     10302554    2229977.5    828190.19    3058167.7    1967488.5 
   23100        5.775    14411.537     10532847      2285070    814616.93      3099687    1952482.6 
   23200          5.8     14186.76     10774668    2343383.9    801911.34    3145295.2    1937476.7 
   23300        5.825    14020.307     11022851    2408888.2    792502.49    3201390.7    1922470.9 
   23400         5.85    14080.127     11353329    2507321.8    795883.84    3303205.6      1907465 
   23500        5.875    15145.269     11739223    2636816.3    856091.39    3492907.6    1892459.1 
   23600          5.9    16087.253     12102722    2766784.3    909337.31    3676121.6    1877453.3 
   23700        5.925    16655.257     12459436    2890812.7    941443.94    3832256.7    1862447.4 
   23800         5.95    17614.343     12818434    3024254.7    995656.59    4019911.3    1847441.6 
   23900        5.975    18094.311     13197498    3168260.7    1022786.9    4191047.6    1832435.7 
   24000            6    18433.246     13563701    3303507.8    1041945.3    4345453.1    1817429.8 
   24100        6.025    19157.678     13938622    3431272.9    1082894.1    4514167.1      1802424 
   24200         6.05    20197.994     14322517    3547768.8    1141698.3      4689467    1787418.1 
   24300        6.075    21528.343     14709917    3667545.8    1216896.7    4884442.5    1772412.3 
   24400          6.1    23061.261     15092379    3783013.6    1303545.4      5086559    1757406.4 
   24500        6.125    24197.511     15460328    3908221.3    1367772.3    5275993.6    1742400.5 
   24600         6.15    24892.519     15902372    4059686.3    1407057.9    5466744.1    1727394.7 
   24700        6.175    25052.316     16336446    4231481.2    1416090.5    5647571.7    1712388.8 
   24800          6.2    24944.854     16776951    4406756.8    1410016.2      5816773      1697383 
   24900        6.225     24786.57     17248194    4584232.6    1401069.1    5985301.7    1682377.1 
   25000         6.25    24684.696     17726112    4758545.6    1395310.7    6153856.2    1667371.2 
   25100        6.275     24946.52     18198510    4913636.7    1410110.3      6323747    1652365.4 
