LAMMPS (24 Mar 2022)
OMP_NUM_THREADS environment is not set. Defaulting to 1 thread. (src/comm.cpp:98)
  using 1 OpenMP thread(s) per MPI task
package gpu 0
# Impact of NiAl nanolaminate, 4 km/s.

# simulation construction

units      metal
dimension  3
boundary   p p p
atom_style atomic

region       left    block         -1000.0    -45.0 0.0 200 0.0 200
region      right    block             45.0 1000.0 0.0 200 0.0 200

thermo 1

# Read pre-thermalised data, reset timestep
read_restart bilayer-nial09-thermalised.init
Reading restart file ...
  restart file = 24 Mar 2022, LAMMPS = 24 Mar 2022
  restoring atom style atomic from restart
  orthogonal box = (0 0.041596894 0.29145035) to (514 99.958403 99.70855)
  6 by 1 by 1 MPI processor grid
  pair style eam/alloy/gpu stores no restart info
  397994 atoms
  read_restart CPU = 0.067 seconds
timestep   0.001
reset_timestep 0

# Set potentials
pair_style eam/alloy
pair_coeff * * Mishin-Ni-Al-2009.eam.alloy Ni Al


# Thermodynamic acquire settings
thermo_style custom step time temp press pe ke etotal vol
thermo 100
dump    atomdump all atom 100 contract.lammpstrj

compute spatialbins all chunk/atom bin/1d x lower 0.01 ids every compress no units reduced
compute bintemps    all temp/chunk spatialbins temp com yes
compute ke all ke

fix     temp_bias          all ave/chunk 1 10 10 spatialbins temp bias bintemps file temp.bias.dat
fix     velocity_x         all ave/chunk 1 10 10 spatialbins vx file vx.dat
fix     velocity_x_highres all ave/chunk 1  1  1 spatialbins vx file hrvx.dat
fix     kinetic_energy     all ave/time 1 1 1 c_ke file ke.dat

# Set microcanonical ensemble
fix     microcanonical     all nve

# Thump dynamics
#group          g_left      region left
#group         g_right      region right
#velocity       g_left      set  20 NULL NULL units box sum yes
#velocity      g_right      set -20 NULL NULL units box sum yes
#fix      box_contract      all deform 1 x vel -40 remap v units box
run 10000

CITE-CITE-CITE-CITE-CITE-CITE-CITE-CITE-CITE-CITE-CITE-CITE-CITE

Your simulation uses code contributions which should be cited:

- GPU package (short-range, long-range and three-body potentials):

@Article{Brown11,
 author = {W. M. Brown, P. Wang, S. J. Plimpton, A. N. Tharrington},
 title = {Implementing Molecular Dynamics on Hybrid High Performance Computers - Short Range Forces},
 journal = {Comp.~Phys.~Comm.},
 year =    2011,
 volume =  182,
 pages =   {898--911}
}

@Article{Brown12,
 author = {W. M. Brown, A. Kohlmeyer, S. J. Plimpton, A. N. Tharrington},
 title = {Implementing Molecular Dynamics on Hybrid High Performance Computers - Particle-Particle Particle-Mesh},
 journal = {Comp.~Phys.~Comm.},
 year =    2012,
 volume =  183,
 pages =   {449--459}
}

@Article{Brown13,
 author = {W. M. Brown, Y. Masako},
 title = {Implementing Molecular Dynamics on Hybrid High Performance Computers – Three-Body Potentials},
 journal = {Comp.~Phys.~Comm.},
 year =    2013,
 volume =  184,
 pages =   {2785--2793}
}

@Article{Trung15,
 author = {T. D. Nguyen, S. J. Plimpton},
 title = {Accelerating dissipative particle dynamics simulations for soft matter systems},
 journal = {Comput.~Mater.~Sci.},
 year =    2015,
 volume =  100,
 pages =   {173--180}
}

@Article{Trung17,
 author = {T. D. Nguyen},
 title = {GPU-accelerated Tersoff potentials for massively parallel Molecular Dynamics simulations},
 journal = {Comp.~Phys.~Comm.},
 year =    2017,
 volume =  212,
 pages =   {113--122}
}

@Article{Nikolskiy19,
 author = {V. Nikolskiy, V. Stegailov},
 title = {GPU acceleration of four-site water models in LAMMPS},
 journal = {Proceeding of the International Conference on Parallel Computing (ParCo 2019), Prague, Czech Republic},
 year =    2019
}

CITE-CITE-CITE-CITE-CITE-CITE-CITE-CITE-CITE-CITE-CITE-CITE-CITE

Unused restart file global fix info:
  fix style: npt/gpu, fix ID: 1
Unused restart file peratom fix info:
  fix style: STORE, fix ID: spatialbins_COMPUTE_STORE
Per MPI rank memory allocation (min/avg/max) = 25.09 | 27.16 | 28.32 Mbytes
   Step          Time           Temp          Press          PotEng         KinEng         TotEng         Volume    
         0   0              300.51343     -399.62456     -1652548.6      15459.803     -1637088.8      5105787.7    
       100   0.1            306.34213     -465.06743     -1652848.6      15759.658     -1637089        5105787.7    
       200   0.2            307.73957     -372.8143      -1652920.6      15831.549     -1637089        5105787.7    
       300   0.3            307.64615     -283.20076     -1652915.8      15826.743     -1637089        5105787.7    
       400   0.4            307.21281     -183.58928     -1652893.4      15804.45      -1637089        5105787.7    
       500   0.5            307.14769     -63.181989     -1652890.1      15801.1       -1637089        5105787.7    
       600   0.6            307.30875      11.511815     -1652898.4      15809.386     -1637089        5105787.7    
       700   0.7            307.66195      93.09017      -1652916.6      15827.556     -1637089        5105787.7    
       800   0.8            306.89695      170.02673     -1652877.2      15788.201     -1637089        5105787.7    
       900   0.9            307.06663      275.305       -1652885.9      15796.93      -1637089        5105787.7    
      1000   1              307.18248      343.7633      -1652891.9      15802.89      -1637089        5105787.7    
      1100   1.1            307.59858      436.86072     -1652913.3      15824.296     -1637089        5105787.7    
      1200   1.2            307.11853      504.2868      -1652888.6      15799.6       -1637089        5105787.7    
      1300   1.3            307.4841       610.62188     -1652907.4      15818.407     -1637089        5105787.7    
      1400   1.4            307.22202      694.22603     -1652893.9      15804.924     -1637089        5105787.7    
      1500   1.5            307.05838      788.89339     -1652885.5      15796.506     -1637089        5105787.7    
      1600   1.6            307.25681      841.05371     -1652895.7      15806.714     -1637089        5105787.7    
      1700   1.7            307.7883       913.76188     -1652923.1      15834.056     -1637089        5105787.7    
      1800   1.8            307.58974      975.6088      -1652912.8      15823.841     -1637089        5105787.7    
      1900   1.9            307.50346      1005.9151     -1652908.4      15819.402     -1637089        5105787.7    
      2000   2              307.42554      1138.2802     -1652904.4      15815.394     -1637089        5105787.7    
      2100   2.1            306.9567       1197.9779     -1652880.3      15791.275     -1637089        5105787.7    
      2200   2.2            307.04386      1305.9067     -1652884.7      15795.759     -1637089        5105787.7    
      2300   2.3            307.01295      1399.3737     -1652883.1      15794.169     -1637089        5105787.7    
      2400   2.4            307.13685      1436.4928     -1652889.5      15800.542     -1637089        5105787.7    
      2500   2.5            308.12638      1497.0057     -1652940.5      15851.449     -1637089        5105787.7    
      2600   2.6            307.95258      1568.2443     -1652931.5      15842.507     -1637089        5105787.7    
      2700   2.7            307.28214      1664.1025     -1652897        15808.017     -1637089        5105787.7    
      2800   2.8            307.78247      1747.3247     -1652922.8      15833.756     -1637089        5105787.7    
      2900   2.9            307.36958      1846.7335     -1652901.5      15812.515     -1637089        5105787.7    
      3000   3              307.75073      1900.5341     -1652921.1      15832.123     -1637089        5105787.7    
      3100   3.1            307.75883      1959.2853     -1652921.5      15832.54      -1637089        5105787.7    
      3200   3.2            307.20956      1964.9796     -1652893.3      15804.283     -1637089        5105787.7    
      3300   3.3            307.99466      2035.2492     -1652933.7      15844.672     -1637089        5105787.7    
      3400   3.4            307.62111      2073.8976     -1652914.5      15825.455     -1637089        5105787.7    
      3500   3.5            307.36221      2115.7715     -1652901.1      15812.136     -1637089        5105787.7    
      3600   3.6            307.69045      2175.6776     -1652918        15829.022     -1637089        5105787.7    
      3700   3.7            306.86503      2211.1129     -1652875.5      15786.559     -1637089        5105787.7    
      3800   3.8            307.45991      2225.3135     -1652906.2      15817.162     -1637089        5105787.7    
      3900   3.9            307.69105      2266.7247     -1652918.1      15829.053     -1637089        5105787.7    
      4000   4              307.4362       2270.5548     -1652904.9      15815.942     -1637089        5105787.7    
      4100   4.1            307.99082      2276.4439     -1652933.5      15844.475     -1637089        5105787.7    
      4200   4.2            307.5113       2326.8447     -1652908.8      15819.806     -1637089        5105787.7    
      4300   4.3            307.34654      2326.7654     -1652900.3      15811.33      -1637089        5105787.7    
      4400   4.4            307.31941      2378.8269     -1652898.9      15809.934     -1637089        5105787.7    
      4500   4.5            307.207        2403.612      -1652893.1      15804.151     -1637089        5105787.7    
      4600   4.6            307.82551      2476.7327     -1652925        15835.97      -1637089        5105787.7    
      4700   4.7            308.36298      2478.9363     -1652952.6      15863.62      -1637089        5105787.7    
      4800   4.8            308.26636      2450.2822     -1652947.7      15858.65      -1637089        5105787.7    
      4900   4.9            307.80617      2438.3401     -1652924        15834.975     -1637089        5105787.7    
      5000   5              308.06478      2459.9883     -1652937.3      15848.28      -1637089        5105787.7    
      5100   5.1            307.60745      2444.2854     -1652913.8      15824.752     -1637089        5105787.7    
      5200   5.2            307.24399      2486.9958     -1652895.1      15806.054     -1637089        5105787.7    
      5300   5.3            307.49925      2464.9414     -1652908.2      15819.186     -1637089        5105787.7    
      5400   5.4            307.15682      2433.4586     -1652890.6      15801.57      -1637089        5105787.7    
      5500   5.5            307.00388      2408.6887     -1652882.7      15793.702     -1637089        5105787.7    
      5600   5.6            307.48719      2349.33       -1652907.6      15818.566     -1637089        5105787.7    
      5700   5.7            307.31571      2350.4013     -1652898.7      15809.744     -1637089        5105787.7    
      5800   5.8            308.0003       2318.4466     -1652934        15844.962     -1637089        5105787.7    
      5900   5.9            307.36505      2341.7031     -1652901.3      15812.282     -1637089        5105787.7    
      6000   6              307.78261      2310.8963     -1652922.8      15833.763     -1637089        5105787.7    
      6100   6.1            307.63624      2245.3265     -1652915.2      15826.234     -1637089        5105787.7    
      6200   6.2            307.87693      2177.8219     -1652927.6      15838.616     -1637089        5105787.7    
      6300   6.3            307.55298      2210.1279     -1652911        15821.95      -1637089        5105787.7    
      6400   6.4            307.43651      2181.3756     -1652905        15815.959     -1637089        5105787.7    
      6500   6.5            307.61313      2156.8886     -1652914        15825.044     -1637089        5105787.7    
      6600   6.6            308.00222      2089.477      -1652934.1      15845.061     -1637089        5105787.7    
      6700   6.7            307.79054      2023.5799     -1652923.2      15834.171     -1637089        5105787.7    
      6800   6.8            307.40301      1996.1589     -1652903.2      15814.235     -1637089        5105787.7    
      6900   6.9            307.84379      1921.4183     -1652925.9      15836.911     -1637089        5105787.7    
      7000   7              307.35209      1882.1596     -1652900.6      15811.615     -1637089        5105787.7    
      7100   7.1            307.14891      1846.2858     -1652890.2      15801.163     -1637089        5105787.7    
      7200   7.2            307.61061      1780.7492     -1652913.9      15824.915     -1637089        5105787.7    
      7300   7.3            306.96728      1732.3993     -1652880.8      15791.819     -1637089        5105787.7    
      7400   7.4            307.33041      1624.5953     -1652899.5      15810.5       -1637089        5105787.7    
      7500   7.5            307.15339      1581.0272     -1652890.4      15801.394     -1637089        5105787.7    
      7600   7.6            307.27359      1532.0605     -1652896.6      15807.577     -1637089        5105787.7    
      7700   7.7            307.4562       1469.0368     -1652906        15816.971     -1637089        5105787.7    
      7800   7.8            307.98175      1390.0905     -1652933        15844.008     -1637089        5105787.7    
      7900   7.9            308.01399      1345.0721     -1652934.7      15845.667     -1637089        5105787.7    
      8000   8              307.22473      1252.8695     -1652894.1      15805.064     -1637089        5105787.7    
      8100   8.1            307.42846      1214.6001     -1652904.5      15815.544     -1637089        5105787.7    
      8200   8.2            307.99562      1086.105      -1652933.7      15844.722     -1637089        5105787.7    
      8300   8.3            307.21761      1035.619      -1652893.7      15804.697     -1637089        5105787.7    
      8400   8.4            306.97445      943.67056     -1652881.2      15792.188     -1637089        5105787.7    
      8500   8.5            307.16157      861.6957      -1652890.8      15801.814     -1637089        5105787.7    
      8600   8.6            307.25728      747.87136     -1652895.7      15806.738     -1637089        5105787.7    
      8700   8.7            307.75703      673.72683     -1652921.4      15832.448     -1637089        5105787.7    
      8800   8.8            307.17185      620.22629     -1652891.3      15802.343     -1637089        5105787.7    
      8900   8.9            307.41149      552.00409     -1652903.7      15814.671     -1637089        5105787.7    
      9000   9              307.39101      485.50758     -1652902.6      15813.618     -1637089        5105787.7    
      9100   9.1            307.47477      390.71791     -1652906.9      15817.926     -1637089        5105787.7    
      9200   9.2            307.30445      327.33065     -1652898.2      15809.165     -1637089        5105787.7    
      9300   9.3            307.1986       227.34793     -1652892.7      15803.719     -1637089        5105787.7    
      9400   9.4            307.84259      168.35523     -1652925.8      15836.849     -1637089        5105787.7    
      9500   9.5            307.3441       111.60325     -1652900.2      15811.204     -1637089        5105787.7    
      9600   9.6            306.76088      37.629765     -1652870.2      15781.201     -1637089        5105787.7    
      9700   9.7            307.17254     -69.492293     -1652891.4      15802.379     -1637089        5105787.7    
      9800   9.8            306.9034      -175.59053     -1652877.5      15788.533     -1637089        5105787.7    
      9900   9.9            307.1325      -299.26942     -1652889.3      15800.319     -1637089        5105787.7    
     10000   10             306.84802     -394.4118      -1652874.7      15785.684     -1637089        5105787.7    
Loop time of 335.592 on 6 procs for 10000 steps with 397994 atoms

Performance: 2.575 ns/day, 9.322 hours/ns, 29.798 timesteps/s
99.7% CPU use with 6 MPI tasks x 1 OpenMP threads

MPI task timing breakdown:
Section |  min time  |  avg time  |  max time  |%varavg| %total
---------------------------------------------------------------
Pair    | 199.97     | 214.63     | 225.47     |  63.0 | 63.96
Neigh   | 0.059632   | 0.064763   | 0.068394   |   1.3 |  0.02
Comm    | 10.511     | 15.661     | 25.167     | 144.1 |  4.67
Output  | 9.9975     | 9.9977     | 9.9984     |   0.0 |  2.98
Modify  | 75.48      | 81.259     | 86.515     |  40.5 | 24.21
Other   |            | 13.98      |            |       |  4.17

Nlocal:        66332.3 ave       68596 max       62280 min
Histogram: 2 0 0 0 0 0 0 0 1 3
Nghost:        35389.5 ave       39415 max       29836 min
Histogram: 2 0 0 0 0 0 0 2 0 2
Neighs:              0 ave           0 max           0 min
Histogram: 6 0 0 0 0 0 0 0 0 0

Total # of neighbors = -6
Ave neighs/atom = -1.5075604e-05
Neighbor list builds = 84
Dangerous builds = 0
Total wall time: 0:05:37
