LAMMPS (29 Sep 2021)
  using 1 OpenMP thread(s) per MPI task
Reading restart file ...
  restart file = 29 Sep 2021, LAMMPS = 29 Sep 2021
  restoring atom style atomic from restart
  orthogonal box = (-0.26458854 -0.26108745 0.0000000) to (101.48197 101.47847 719.80400)
  2 by 1 by 12 MPI processor grid
  pair style eam/alloy/gpu stores no restart info
  516124 atoms
  read_restart CPU = 0.151 seconds
Resetting global fix info from restart file:
  fix style: npt/gpu, fix ID: 2

CITE-CITE-CITE-CITE-CITE-CITE-CITE-CITE-CITE-CITE-CITE-CITE-CITE

Your simulation uses code contributions which should be cited:
- GPU package (short-range, long-range and three-body potentials):
The log file lists these citations in BibTeX format.

CITE-CITE-CITE-CITE-CITE-CITE-CITE-CITE-CITE-CITE-CITE-CITE-CITE


--------------------------------------------------------------------------
- Using acceleration for eam/alloy:
-  with 12 proc(s) per device.
-  Horizontal vector operations: ENABLED
-  Shared memory system: No
--------------------------------------------------------------------------
Device 0: Tesla V100-SXM2-32GB, 80 CUs, 28/32 GB, 1.5 GHZ (Mixed Precision)
Device 1: Tesla V100-SXM2-32GB, 80 CUs, 1.5 GHZ (Mixed Precision)
--------------------------------------------------------------------------

Initializing Device and compiling on process 0...Done.
Initializing Devices 0-1 on core 0...Done.
Initializing Devices 0-1 on core 1...Done.
Initializing Devices 0-1 on core 2...Done.
Initializing Devices 0-1 on core 3...Done.
Initializing Devices 0-1 on core 4...Done.
Initializing Devices 0-1 on core 5...Done.
Initializing Devices 0-1 on core 6...Done.
Initializing Devices 0-1 on core 7...Done.
Initializing Devices 0-1 on core 8...Done.
Initializing Devices 0-1 on core 9...Done.
Initializing Devices 0-1 on core 10...Done.
Initializing Devices 0-1 on core 11...Done.

All restart file global fix info was re-assigned
Unused restart file peratom fix info:
  fix style: STORE, fix ID: spatialbins_COMPUTE_STORE
Setting up Verlet run ...
  Unit style    : metal
  Current step  : 11000166
  Time step     : 0.00025
Per MPI rank memory allocation (min/avg/max) = 6.902 | 9.642 | 10.07 Mbytes
Step Time Temp PotEng E_pair TotEng Press Volume Lx Ly Lz CPULeft 
11000166            0    299.75171     -1999090     -1999090   -1979092.4    85.224498    7451159.5    101.74656    101.73956      719.804            0 
11010000       2.4585    299.64504   -1999077.6   -1999077.6     -1979087    19.600128    7451396.9    101.74757    101.74179      719.804    8609.1473 
11020000       4.9585    300.08224   -1999070.6   -1999070.6   -1979050.8   -21.257332    7451398.5     101.7447    101.74469      719.804    8551.0216 
11030000       7.4585    299.74135   -1999079.4   -1999079.4   -1979082.4   -66.837096    7451996.3    101.75266    101.74489      719.804    8473.5402 
11040000       9.9585    299.97277   -1999101.1   -1999101.1   -1979088.6    -57.85398    7451602.7    101.74625    101.74592      719.804    8391.4492 
11050000      12.4585    300.36821   -1999085.4   -1999085.4   -1979046.6   -16.867442    7451387.8    101.74744     101.7418      719.804    8306.8849 
11060000      14.9585    299.89021   -1999098.7   -1999098.7   -1979091.8   -47.604479    7451336.5    101.74961    101.73893      719.804    8221.4085 
11070000      17.4585     300.0208   -1999092.7   -1999092.7     -1979077    -12.20646    7451265.6    101.75073    101.73684      719.804    8134.9512 
11080000      19.9585    299.72985   -1999099.4   -1999099.4   -1979103.1   -3.4914662    7451158.9    101.74432     101.7418      719.804    8048.0835 
11090000      22.4585    300.25753   -1999112.4   -1999112.4     -1979081    8.8098622    7451105.9    101.74003    101.74536      719.804    7961.1084 
11100000      24.9585    299.90423   -1999110.7   -1999110.7   -1979102.8    1.3423409    7450923.6    101.74413    101.73878      719.804    7874.0839 
11110000      27.4585    299.67824   -1999068.8   -1999068.8   -1979076.1    70.314524      7451325    101.74145    101.74694      719.804    7786.6122 
11120000      29.9585    300.17042   -1999096.3   -1999096.3   -1979070.7    30.759952    7451064.6     101.7382    101.74662      719.804    7699.6268 
11130000      32.4585    299.61947     -1999063     -1999063   -1979074.2   -86.496683    7451806.1    101.74139    101.75356      719.804    7612.5481 
11140000      34.9585    300.05479   -1999088.9   -1999088.9     -1979071   -118.45551    7451984.7     101.7419    101.75549      719.804    7525.6555 
11150000      37.4585     299.8765   -1999069.3   -1999069.3   -1979063.3    16.097059    7452045.6    101.74714    101.75109      719.804    7438.4935 
11160000      39.9585     299.7611   -1999081.2   -1999081.2   -1979082.9     -16.1795    7451437.6    101.74132     101.7486      719.804    7351.5124 
11170000      42.4585    300.75711   -1999082.8   -1999082.8     -1979018   -8.0907048    7451545.6    101.74354    101.74785      719.804    7264.5457 
11180000      44.9585    300.30027   -1999079.4   -1999079.4   -1979045.2   -39.742946    7451973.8    101.74343    101.75381      719.804    7177.1196 
11190000      47.4585    300.44545   -1999111.7   -1999111.7   -1979067.7    13.717871    7451380.3    101.74085    101.74829      719.804    7089.5384 
11200000      49.9585    299.86926   -1999073.2   -1999073.2   -1979067.7   -34.343772    7451395.1    101.74464     101.7447      719.804     7002.035 
11210000      52.4585    299.45831   -1999068.7   -1999068.7   -1979090.6   -28.742555    7451376.8    101.74802    101.74107      719.804     6914.646 
11220000      54.9585    299.59045   -1999085.8   -1999085.8   -1979098.9    48.007607    7450665.2    101.73654    101.74283      719.804    6827.1903 
11230000      57.4585    300.07174   -1999086.5   -1999086.5   -1979067.5   -77.409204    7451582.2    101.75057    101.74132      719.804    6739.6289 
11240000      59.9585    299.80509   -1999084.5   -1999084.5   -1979083.3    78.988213    7450092.5    101.73441    101.73715      719.804     6652.041 
11250000      62.4585    299.95693   -1999078.8   -1999078.8   -1979067.5   -17.459397    7450838.9    101.73787    101.74387      719.804    6564.3671 
11260000      64.9585    299.97407     -1999091     -1999091   -1979078.5    -120.6001    7451320.3    101.74384    101.74448      719.804    6476.8177 
11270000      67.4585    299.52069   -1999056.7   -1999056.7   -1979074.4    29.400597      7450902    101.73325    101.74935      719.804    6389.4839 
11280000      69.9585    299.89183   -1999060.7   -1999060.7   -1979053.7   -14.800155    7450992.3    101.74569    101.73816      719.804    6302.1096 
11290000      72.4585     300.2954   -1999117.6   -1999117.6   -1979083.7    33.188582    7450568.8    101.74624    101.73182      719.804    6214.5418 
11300000      74.9585    299.88149   -1999093.6   -1999093.6   -1979087.3    69.248617    7450784.5    101.74102    101.73999      719.804    6126.9686 
11310000      77.4585    299.65022   -1999068.5   -1999068.5   -1979077.6    9.3987197    7451383.9    101.74209     101.7471      719.804    6039.4615 
11320000      79.9585    300.35276   -1999115.7   -1999115.7   -1979077.9   -80.086116    7452089.7    101.75092     101.7479      719.804    5951.8508 
11330000      82.4585    299.80849   -1999061.3   -1999061.3   -1979059.8   -26.135855    7451493.3    101.74392    101.74676      719.804    5864.2704 
11340000      84.9585     299.7752   -1999059.2   -1999059.2     -1979060    15.365839    7451838.7    101.74253    101.75287      719.804    5776.7831 
11350000      87.4585    299.98878   -1999078.1   -1999078.1   -1979064.6    105.72731    7450892.4    101.74427     101.7382      719.804    5689.3494 
11360000      89.9585    299.61245   -1999089.7   -1999089.7   -1979101.3   -31.938307    7451091.3    101.74407    101.74112      719.804    5601.8363 
11370000      92.4585    300.05218   -1999121.2   -1999121.2   -1979103.5    20.733569    7450867.9    101.73566    101.74648      719.804    5514.3438 
11380000      94.9585    300.31427   -1999121.4   -1999121.4   -1979086.2    16.376211    7450935.2    101.73622    101.74684      719.804    5426.8954 
11390000      97.4585    299.86786   -1999073.2   -1999073.2   -1979067.8    45.830269    7450200.9     101.7409    101.73213      719.804    5339.3937 
11400000      99.9585    299.99329   -1999087.5   -1999087.5   -1979073.7    46.983362    7449937.6     101.7376    101.73184      719.804    5251.8591 
11410000     102.4585    300.28332   -1999093.4   -1999093.4   -1979060.3   -42.240187    7451152.1    101.73229    101.75373      719.804    5164.3606 
11420000     104.9585    299.98769   -1999081.7   -1999081.7   -1979068.3    34.927337    7450879.5    101.74595    101.73635      719.804    5076.8417 
11430000     107.4585    299.63483     -1999083     -1999083   -1979093.1   -56.053992    7451054.1    101.73559     101.7491      719.804    4989.4253 
11440000     109.9585    300.29316   -1999109.6   -1999109.6   -1979075.8   -45.199606    7451700.7    101.74395    101.74956      719.804    4902.0037 
11450000     112.4585    300.29669   -1999092.2   -1999092.2   -1979058.2    58.711236    7451040.4    101.74527    101.73922      719.804    4814.5304 
11460000     114.9585    300.17666   -1999100.9   -1999100.9   -1979074.9    93.752318    7451422.2    101.74061    101.74911      719.804     4727.105 
11470000     117.4585    299.66162     -1999094     -1999094   -1979102.4    121.66348    7450588.5     101.7368    101.74152      719.804    4639.5939 
11480000     119.9585    300.31329   -1999075.3   -1999075.3   -1979040.1   -32.427761    7451895.2     101.7498    101.74637      719.804    4552.1095 
11490000     122.4585    300.26146   -1999072.3   -1999072.3   -1979040.6   -42.734853    7451951.9    101.74926    101.74768      719.804    4464.5748 
11500000     124.9585    300.06164   -1999089.9   -1999089.9   -1979071.6   -79.509504    7452267.9    101.75278    101.74848      719.804    4377.0422 
11510000     127.4585     299.7799   -1999074.1   -1999074.1   -1979074.5   -69.774307    7451410.3    101.74669    101.74286      719.804    4289.4992 
11520000     129.9585     299.7508   -1999074.5   -1999074.5   -1979076.9   -59.024322    7451485.9     101.7448    101.74578      719.804    4201.9805 
11530000     132.4585    299.84124   -1999078.7   -1999078.7     -1979075    21.485891    7451214.6    101.74632    101.74056      719.804    4114.4539 
11540000     134.9585    300.01289   -1999073.8   -1999073.8   -1979058.7   -57.173988    7451806.3    101.74969    101.74527      719.804    4026.9773 
11550000     137.4585    300.32308   -1999096.5   -1999096.5   -1979060.7   -100.32549    7451254.6    101.74285    101.74457      719.804     3939.464 
11560000     139.9585    299.80184   -1999087.9   -1999087.9   -1979086.9   -8.2157334    7451350.4    101.74432    101.74441      719.804    3851.9377 
11570000     142.4585     300.0519   -1999076.5   -1999076.5   -1979058.8      41.5439    7451092.7    101.73492    101.75029      719.804    3764.4149 
11580000     144.9585    300.13346   -1999104.5   -1999104.5   -1979081.4    71.576802    7450902.1    101.73965    101.74296      719.804    3676.9178 
11590000     147.4585    299.85749   -1999105.5   -1999105.5   -1979100.7   -40.297662    7451155.7    101.73972    101.74636      719.804    3589.4006 
11600000     149.9585    299.81672   -1999085.8   -1999085.8   -1979083.8    44.745847    7451679.1    101.74689    101.74632      719.804    3501.8849 
11610000     152.4585    300.02847   -1999108.7   -1999108.7   -1979092.6    29.458666    7451257.1     101.7498    101.73765      719.804    3414.3488 
11620000     154.9585    299.58308   -1999060.8   -1999060.8   -1979074.4   -44.260507    7452148.7    101.75282    101.74681      719.804    3326.8477 
11630000     157.4585    299.99615   -1999078.6   -1999078.6   -1979064.6    -25.35852    7450886.9    101.74565    101.73675      719.804    3239.3266 
11640000     159.9585    300.49113   -1999082.2   -1999082.2   -1979035.2    110.56069    7451029.2    101.74612    101.73822      719.804    3151.8174 
11650000     162.4585    299.82871     -1999096     -1999096   -1979093.2   -5.0675594    7451357.3    101.74746    101.74137      719.804    3064.3267 
11660000     164.9585    300.11094   -1999071.3   -1999071.3   -1979049.7    37.930873    7450740.5    101.73752    101.74288      719.804    2976.8365 
11670000     167.4585    300.08195   -1999104.8   -1999104.8   -1979085.1    68.785665    7450078.1    101.73091    101.74044      719.804    2889.3308 
11680000     169.9585    299.97275   -1999073.9   -1999073.9   -1979061.5   -25.563116    7451605.1    101.74975    101.74246      719.804    2801.7939 
11690000     172.4585    300.07967   -1999099.1   -1999099.1   -1979079.5     12.85491    7450748.5    101.74037    101.74014      719.804    2714.2773 
11700000     174.9585    300.27283   -1999104.1   -1999104.1   -1979071.6    37.238253    7450424.9    101.73909      101.737      719.804    2626.7475 
11710000     177.4585     300.3526   -1999118.6   -1999118.6   -1979080.9    105.04296    7449949.1    101.73839     101.7312      719.804    2539.2381 
11720000     179.9585    299.51696   -1999083.6   -1999083.6   -1979101.6    76.493603    7451381.8    101.73974    101.74942      719.804    2451.7374 
11730000     182.4585    300.27722     -1999092     -1999092   -1979059.3   -74.697647    7451218.9     101.7468    101.74013      719.804    2364.2354 
11740000     184.9585    300.27021   -1999073.8   -1999073.8   -1979041.5   -61.930148    7451899.7    101.75151    101.74472      719.804    2276.7296 
11750000     187.4585     300.5266   -1999098.4   -1999098.4   -1979049.1   -24.153036    7451519.7      101.753    101.73804      719.804     2189.235 
11760000     189.9585    300.30299   -1999081.1   -1999081.1   -1979046.6   -1.8994693    7451824.8    101.75092    101.74429      719.804    2101.7433 
11770000     192.4585    299.68034   -1999079.3   -1999079.3   -1979086.4   -5.7120946    7451074.8    101.74529    101.73968      719.804    2014.2438 
11780000     194.9585    299.89817   -1999077.2   -1999077.2   -1979069.8    48.493182    7451001.5    101.73847    101.74549      719.804    1926.7316 
11790000     197.4585    299.75235   -1999105.6   -1999105.6   -1979107.9   -45.238074    7451083.9     101.7385    101.74659      719.804    1839.2176 
11800000     199.9585     300.0768   -1999087.7   -1999087.7   -1979068.3   -54.444615    7451689.4    101.74429    101.74907      719.804    1751.6962 
11810000     202.4585    300.14077   -1999095.9   -1999095.9   -1979072.3   -88.795729    7451221.4    101.74607     101.7409      719.804    1664.1826 
11820000     204.9585    300.30605   -1999096.7   -1999096.7     -1979062   -21.718025    7450717.6    101.73887    101.74122      719.804    1576.6729 
11830000     207.4585    299.96145   -1999083.5   -1999083.5   -1979071.8    28.270381    7450869.9    101.73364    101.74853      719.804    1489.1664 
11840000     209.9585    299.90471     -1999099     -1999099   -1979091.1   -22.357363    7451108.4    101.75096    101.73446      719.804    1401.6597 
11850000     212.4585    300.17945   -1999086.1   -1999086.1   -1979059.8   -37.660379      7451193    101.73841    101.74817      719.804    1314.1522 
11860000     214.9585    299.92612   -1999086.7   -1999086.7   -1979077.4   -16.617175    7451611.9     101.7462     101.7461      719.804    1226.6467 
11870000     217.4585    300.06707   -1999088.9   -1999088.9   -1979070.2   -40.375677    7451479.1    101.74383    101.74665      719.804    1139.1408 
11880000     219.9585    299.49391   -1999078.8   -1999078.8   -1979098.3    20.107917    7451982.7    101.75416    101.74321      719.804    1051.6333 
11890000     222.4585    299.75479   -1999085.5   -1999085.5   -1979087.6    46.440695    7451300.4    101.74377    101.74428      719.804    964.11769 
11900000     224.9585    299.55886   -1999070.4   -1999070.4   -1979085.6   -73.155618      7452069    101.74955    101.74899      719.804    876.60356 
11910000     227.4585    300.11643   -1999101.2   -1999101.2   -1979079.2   -14.454661      7451678     101.7428     101.7504      719.804    789.09096 
11920000     229.9585    300.53726     -1999107     -1999107   -1979056.9    80.910147    7450599.2    101.74275    101.73572      719.804    701.57658 
11930000     232.4585    300.10012   -1999074.5   -1999074.5   -1979053.6    24.567069    7450311.6    101.74755    101.72699      719.804     614.0618 
11940000     234.9585    299.67248   -1999085.6   -1999085.6   -1979093.2    60.975609    7450117.5     101.7401    101.73179      719.804    526.54814 
11950000     237.4585    300.60619   -1999077.1   -1999077.1   -1979022.4    40.466807    7451115.2    101.74293    101.74259      719.804    439.03529 
11960000     239.9585    300.30831   -1999110.6   -1999110.6   -1979075.8   -29.717883    7450570.8    101.73743    101.74065      719.804    351.52137 
11970000     242.4585    299.73771   -1999080.7   -1999080.7     -1979084   -62.711906    7450958.2    101.74062    101.74275      719.804    264.00459 
11980000     244.9585    300.05895   -1999094.6   -1999094.6   -1979076.4    28.724094    7451024.6    101.74231    101.74197      719.804    176.48681 
11990000     247.4585     299.9758   -1999066.6   -1999066.6   -1979053.9     12.49267    7451021.5    101.74134     101.7429      719.804    88.970233 
12000000     249.9585    299.93761   -1999066.9   -1999066.9   -1979056.8   -49.222792    7451984.6    101.75409     101.7433      719.804    1.4527909 
12000166          250    299.84584   -1999067.5   -1999067.5   -1979063.5    44.033166    7451099.8    101.74003    101.74528      719.804            0 
Loop time of 8751.76 on 24 procs for 1000000 steps with 516124 atoms

Performance: 2.468 ns/day, 9.724 hours/ns, 114.263 timesteps/s
99.9% CPU use with 24 MPI tasks x 1 OpenMP threads

MPI task timing breakdown:
Section |  min time  |  avg time  |  max time  |%varavg| %total
---------------------------------------------------------------
Pair    | 2847.5     | 4334.7     | 5198.9     | 918.0 | 49.53
Neigh   | 0.15925    | 0.37827    | 0.65679    |  28.0 |  0.00
Comm    | 719.97     | 859.87     | 1052.6     | 324.3 |  9.83
Output  | 4.1664     | 4.1691     | 4.172      |   0.1 |  0.05
Modify  | 2364.6     | 3158.2     | 4530.5     | 958.7 | 36.09
Other   |            | 394.4      |            |       |  4.51

Nlocal:        21505.2 ave       25117 max       17256 min
Histogram: 4 2 2 0 0 6 2 0 0 8
Nghost:        20120.5 ave       22299 max       14117 min
Histogram: 2 0 0 2 0 0 0 4 12 4
Neighs:         0.00000 ave           0 max           0 min
Histogram: 24 0 0 0 0 0 0 0 0 0

Total # of neighbors = 0
Ave neighs/atom = 0.0000000
Neighbor list builds = 2482
Dangerous builds = 0
System init for write_restart ...


---------------------------------------------------------------------
      Device Time Info (average): 
---------------------------------------------------------------------
Data Transfer:   768.5217 s.
Neighbor copy:   0.1106 s.
Neighbor build:  6.2647 s.
Force calc:      2402.4865 s.
Device Overhead: 1325.0877 s.
Average split:   1.0000.
Lanes / atom:    4.
Vector width:    32.
Max Mem / Proc:  41.93 MB.
CPU Neighbor:    1.2504 s.
CPU Cast/Pack:   473.8595 s.
CPU Driver_Time: 18.6117 s.
CPU Idle_Time:   1438.5716 s.
---------------------------------------------------------------------


--------------------------------------------------------------------------
- Using acceleration for eam/alloy:
-  with 12 proc(s) per device.
-  Horizontal vector operations: ENABLED
-  Shared memory system: No
--------------------------------------------------------------------------
Device 0: Tesla V100-SXM2-32GB, 80 CUs, 28/32 GB, 1.5 GHZ (Mixed Precision)
Device 1: Tesla V100-SXM2-32GB, 80 CUs, 1.5 GHZ (Mixed Precision)
--------------------------------------------------------------------------

Initializing Device and compiling on process 0...Done.
Initializing Devices 0-1 on core 0...Done.
Initializing Devices 0-1 on core 1...Done.
Initializing Devices 0-1 on core 2...Done.
Initializing Devices 0-1 on core 3...Done.
Initializing Devices 0-1 on core 4...Done.
Initializing Devices 0-1 on core 5...Done.
Initializing Devices 0-1 on core 6...Done.
Initializing Devices 0-1 on core 7...Done.
Initializing Devices 0-1 on core 8...Done.
Initializing Devices 0-1 on core 9...Done.
Initializing Devices 0-1 on core 10...Done.
Initializing Devices 0-1 on core 11...Done.

System init for write_data ...

--------------------------------------------------------------------------
- Using acceleration for eam/alloy:
-  with 12 proc(s) per device.
-  Horizontal vector operations: ENABLED
-  Shared memory system: No
--------------------------------------------------------------------------
Device 0: Tesla V100-SXM2-32GB, 80 CUs, 28/32 GB, 1.5 GHZ (Mixed Precision)
Device 1: Tesla V100-SXM2-32GB, 80 CUs, 1.5 GHZ (Mixed Precision)
--------------------------------------------------------------------------

Initializing Device and compiling on process 0...Done.
Initializing Devices 0-1 on core 0...Done.
Initializing Devices 0-1 on core 1...Done.
Initializing Devices 0-1 on core 2...Done.
Initializing Devices 0-1 on core 3...Done.
Initializing Devices 0-1 on core 4...Done.
Initializing Devices 0-1 on core 5...Done.
Initializing Devices 0-1 on core 6...Done.
Initializing Devices 0-1 on core 7...Done.
Initializing Devices 0-1 on core 8...Done.
Initializing Devices 0-1 on core 9...Done.
Initializing Devices 0-1 on core 10...Done.
Initializing Devices 0-1 on core 11...Done.

Total wall time: 2:25:57
