LAMMPS (29 Sep 2021)
  using 1 OpenMP thread(s) per MPI task
Reading data file ...
  orthogonal box = (-0.29750865 -0.29818520 0.0000000) to (101.94057 101.94125 531.07200)
  2 by 2 by 6 MPI processor grid
  reading atoms ...
  425652 atoms
  reading velocities ...
  425652 velocities
  read_data CPU = 4.514 seconds
212826 atoms in group g_left
212826 atoms in group g_right

CITE-CITE-CITE-CITE-CITE-CITE-CITE-CITE-CITE-CITE-CITE-CITE-CITE

Your simulation uses code contributions which should be cited:
- GPU package (short-range, long-range and three-body potentials):
The log file lists these citations in BibTeX format.

CITE-CITE-CITE-CITE-CITE-CITE-CITE-CITE-CITE-CITE-CITE-CITE-CITE


--------------------------------------------------------------------------
- Using acceleration for eam/alloy:
-  with 12 proc(s) per device.
-  Horizontal vector operations: ENABLED
-  Shared memory system: No
--------------------------------------------------------------------------
Device 0: Tesla V100-SXM2-32GB, 80 CUs, 28/32 GB, 1.5 GHZ (Mixed Precision)
Device 1: Tesla V100-SXM2-32GB, 80 CUs, 1.5 GHZ (Mixed Precision)
--------------------------------------------------------------------------

Initializing Device and compiling on process 0...Done.
Initializing Devices 0-1 on core 0...Done.
Initializing Devices 0-1 on core 1...Done.
Initializing Devices 0-1 on core 2...Done.
Initializing Devices 0-1 on core 3...Done.
Initializing Devices 0-1 on core 4...Done.
Initializing Devices 0-1 on core 5...Done.
Initializing Devices 0-1 on core 6...Done.
Initializing Devices 0-1 on core 7...Done.
Initializing Devices 0-1 on core 8...Done.
Initializing Devices 0-1 on core 9...Done.
Initializing Devices 0-1 on core 10...Done.
Initializing Devices 0-1 on core 11...Done.

Setting up Verlet run ...
  Unit style    : metal
  Current step  : 0
  Time step     : 0.00025
Per MPI rank memory allocation (min/avg/max) = 8.303 | 10.19 | 11.14 Mbytes
Step Time Temp Press PotEng KinEng TotEng Volume 
       0            0    2346.1256    21593.397   -1767444.2    129083.15     -1638361    5551170.1 
     100        0.025    2345.5222    21594.218   -1767430.1    129049.95   -1638380.1    5545943.7 
     200         0.05    2345.8023    21605.067   -1767443.5    129065.36   -1638378.2    5540717.3 
     300        0.075    2345.7864    21632.656   -1767434.5    129064.49     -1638370      5535491 
     400          0.1    2345.2922    21667.143   -1767408.9     129037.3   -1638371.6    5530264.6 
     500        0.125    2345.4344    21684.191   -1767428.2    129045.12   -1638383.1    5525038.2 
     600         0.15    2345.6973    21724.679   -1767448.1    129059.59   -1638388.5    5519811.8 
     700        0.175    2345.8684      21763.3     -1767453       129069     -1638384    5514585.4 
     800          0.2    2345.2272    21792.142   -1767414.5    129033.72   -1638380.8      5509359 
     900        0.225    2345.5619     21788.71   -1767434.1    129052.14   -1638381.9    5504132.7 
    1000         0.25    2345.5017    21798.045   -1767431.2    129048.83   -1638382.4    5498906.3 
    1100        0.275    2345.4689    21825.334   -1767427.5    129047.02   -1638380.5    5493679.9 
    1200          0.3     2345.393    21883.643   -1767424.5    129042.84   -1638381.7    5488453.5 
    1300        0.325    2345.7064    21920.337   -1767448.8    129060.09   -1638388.7    5483227.1 
    1400         0.35    2345.5951    21950.104     -1767451    129053.96     -1638397    5478000.8 
    1500        0.375     2344.871     21978.89   -1767413.6    129014.12   -1638399.4    5472774.4 
    1600          0.4    2345.3357    21993.298   -1767435.3    129039.69   -1638395.6      5467548 
    1700        0.425    2345.3462    22014.821   -1767429.2    129040.27   -1638388.9    5462321.6 
    1800         0.45    2345.2825    22042.609   -1767422.2    129036.76   -1638385.5    5457095.2 
    1900        0.475    2345.4858    22078.295   -1767432.2    129047.95   -1638384.2    5451868.8 
    2000          0.5    2345.5453    22117.535   -1767432.9    129051.22   -1638381.6    5446642.5 
    2100        0.525    2345.6805    22148.233     -1767439    129058.66   -1638380.3    5441416.1 
    2200         0.55    2345.1652    22194.416   -1767409.5    129030.31   -1638379.2    5436189.7 
    2300        0.575    2345.5471    22200.032   -1767435.6    129051.32   -1638384.3    5430963.3 
    2400          0.6    2345.5793    22203.274   -1767448.2    129053.09   -1638395.1    5425736.9 
    2500        0.625    2344.8944    22221.768   -1767417.2    129015.41   -1638401.8    5420510.6 
    2600         0.65    2345.1986    22243.932   -1767434.8    129032.15   -1638402.7    5415284.2 
    2700        0.675    2345.3969    22276.022     -1767444    129043.06     -1638401    5410057.8 
    2800          0.7    2345.6754     22295.45   -1767459.1    129058.38   -1638400.8    5404831.4 
    2900        0.725    2344.8066    22318.699   -1767411.6    129010.58     -1638401      5399605 
    3000         0.75    2345.1901    22325.841     -1767428    129031.68   -1638396.4    5394378.6 
    3100        0.775    2345.4983    22336.194   -1767438.1    129048.63   -1638389.4    5389152.3 
    3200          0.8    2345.6507    22343.527   -1767441.5    129057.02   -1638384.5    5383925.9 
    3300        0.825    2345.2066    22363.925   -1767414.2    129032.59   -1638381.7    5378699.5 
    3400         0.85    2345.6659    22367.967     -1767440    129057.86   -1638382.1    5373473.1 
    3500        0.875    2345.5068    22399.132   -1767437.7     129049.1   -1638388.6    5368246.7 
    3600          0.9    2345.4158    22424.464   -1767438.9     129044.1   -1638394.8    5363020.4 
    3700        0.925    2345.5991    22435.867   -1767446.8    129054.18   -1638392.6      5357794 
    3800         0.95    2345.5738    22455.241   -1767438.1    129052.79   -1638385.3    5352567.6 
    3900        0.975    2345.2976    22460.969   -1767421.8     129037.6   -1638384.2    5347341.2 
    4000            1    2345.1795     22469.22     -1767427    129031.09   -1638395.9    5342114.8 
    4100        1.025    2345.0613    22484.644   -1767435.5    129024.59     -1638411    5336888.4 
    4200         1.05    2344.8518    22482.798   -1767430.2    129013.06   -1638417.1    5331662.1 
    4300        1.075    2345.2177    22462.927   -1767448.1     129033.2   -1638414.9    5326435.7 
    4400          1.1    2344.9955    22465.928   -1767435.2    129020.97   -1638414.3    5321209.3 
    4500        1.125    2344.6059    22493.059   -1767413.5    128999.54   -1638413.9    5315982.9 
    4600         1.15    2344.8645    22482.195   -1767425.8    129013.77     -1638412    5310756.5 
    4700        1.175    2347.6965    22317.438   -1767582.2    129169.58   -1638412.6    5305530.2 
    4800          1.2    2351.1997    22301.359   -1767774.7    129362.33   -1638412.4    5300303.8 
    4900        1.225    2355.4289    22143.958   -1768003.8    129595.02   -1638408.8    5295077.4 
    5000         1.25     2370.495    21627.796   -1768826.9    130423.95     -1638403      5289851 
    5100        1.275    2376.8241    22432.232   -1769174.2    130772.17   -1638402.1    5284624.6 
    5200          1.3    2361.7366    24177.506   -1768349.9    129942.06   -1638407.8    5279398.2 
    5300        1.325    2349.2328    26181.399   -1767667.8    129254.11   -1638413.7    5274171.9 
    5400         1.35    2334.7394    28114.213   -1766871.7    128456.69     -1638415    5268945.5 
    5500        1.375    2323.3194    30044.071   -1766240.8    127828.36   -1638412.4    5263719.1 
    5600          1.4    2306.7651    32052.515   -1765330.3    126917.55   -1638412.8    5258492.7 
    5700        1.425    2296.7658    34063.405   -1764787.9    126367.39   -1638420.5    5253266.3 
    5800         1.45    2278.8267    36001.149   -1763806.6    125380.38   -1638426.2      5248040 
    5900        1.475     2269.563    38046.001   -1763292.5     124870.7   -1638421.8    5242813.6 
    6000          1.5    2252.4952     40025.83   -1762344.7    123931.63   -1638413.1    5237587.2 
    6100        1.525     2242.749     42026.02   -1761805.7     123395.4   -1638410.3    5232360.8 
    6200         1.55    2226.0635    44040.826   -1760895.5    122477.37   -1638418.1    5227134.4 
    6300        1.575    2214.1663    46049.125   -1760248.1    121822.79   -1638425.3      5221908 
    6400          1.6    2199.8821    48070.082     -1759464    121036.88   -1638427.1    5216681.7 
    6500        1.625     2187.461    50083.857     -1758780    120353.47   -1638426.5    5211455.3 
    6600         1.65    2172.9456    52125.499   -1757984.6    119554.83   -1638429.8    5206228.9 
    6700        1.675    2159.3208    54195.056   -1757242.6     118805.2   -1638437.4    5201002.5 
    6800          1.7    2145.8317    56256.491   -1756501.8    118063.04   -1638438.7    5195776.1 
    6900        1.725     2131.766    58364.037   -1755720.4    117289.15   -1638431.2    5190549.8 
    7000         1.75    2118.5319    60458.604   -1754983.2    116561.01   -1638422.2    5185323.4 
    7100        1.775    2105.2714    62574.356   -1754249.1    115831.42   -1638417.7      5180097 
    7200          1.8    2090.6714    64869.167   -1753442.3    115028.14   -1638414.1    5174870.6 
    7300        1.825    2079.0484    66783.035   -1752791.1    114388.64   -1638402.5    5169644.2 
    7400         1.85    2078.6204    67827.223   -1752757.1    114365.09     -1638392    5164417.8 
    7500        1.875    2081.4072    68076.064   -1752911.9    114518.42   -1638393.5    5159191.5 
    7600          1.9    2076.2014    68205.048   -1752632.5       114232   -1638400.5    5153965.1 
    7700        1.925     2079.998     68498.62   -1752842.1    114440.89   -1638401.2    5148738.7 
    7800         1.95    2074.7641    69113.517   -1752550.5    114152.92   -1638397.6    5143512.3 
    7900        1.975     2078.498     69594.58   -1752756.1    114358.36   -1638397.7    5138285.9 
    8000            2    2076.7831    69920.775   -1752662.2    114264.01   -1638398.2    5133059.6 
    8100        2.025    2074.0835    70428.966   -1752505.2    114115.47   -1638389.7    5127833.2 
    8200         2.05    2075.5522    71063.425   -1752569.6    114196.28   -1638373.3    5122606.8 
    8300        2.075    2073.1977    71597.583   -1752432.7    114066.74   -1638365.9    5117380.4 
    8400          2.1    2075.9786    71954.641   -1752590.1    114219.74   -1638370.4      5112154 
    8500        2.125    2071.2405    72240.277   -1752331.6    113959.05   -1638372.5    5106927.6 
    8600         2.15    2075.2312    72571.711   -1752542.9    114178.62   -1638364.3    5101701.3 
    8700        2.175     2072.383    73030.614   -1752375.5    114021.91   -1638353.6    5096474.9 
    8800          2.2    2075.2622    73523.453   -1752532.3    114180.33     -1638352    5091248.5 
    8900        2.225    2073.0373    74149.655   -1752410.6    114057.91   -1638352.7    5086022.1 
    9000         2.25    2071.5553    75174.536   -1752320.9    113976.37   -1638344.6    5080795.7 
    9100        2.275    2065.2158    76572.119   -1751961.3    113627.58   -1638333.7    5075569.4 
    9200          2.3    2054.9535    78080.511   -1751394.5    113062.94   -1638331.5      5070343 
    9300        2.325    2047.8533    79534.714   -1751015.1     112672.3   -1638342.8    5065116.6 
    9400         2.35     2032.365    80885.768   -1750172.4    111820.13   -1638352.2    5059890.2 
    9500        2.375    2020.5945    82240.115   -1749520.4    111172.52   -1638347.8    5054663.8 
    9600          2.4    2003.6458    83757.773   -1748580.9    110240.01   -1638340.9    5049437.4 
    9700        2.425    1987.9805    85092.155   -1747726.9    109378.11   -1638348.8    5044211.1 
    9800         2.45    1971.1533    86326.173   -1746818.1    108452.28   -1638365.9    5038984.7 
    9900        2.475     1958.022    87715.619   -1746097.9     107729.8   -1638368.1    5033758.3 
   10000          2.5    1941.7837    89296.625   -1745187.6    106836.38   -1638351.3    5028531.9 
   10100        2.525    1927.1257     90796.13   -1744364.3     106029.9   -1638334.4    5023305.5 
   10200         2.55    1909.4273    92351.639   -1743388.5    105056.13   -1638332.3    5018079.2 
   10300        2.575    1889.8999    94164.071   -1742320.1    103981.75   -1638338.3    5012852.8 
   10400          2.6    1872.7864    96114.738   -1741376.2    103040.16     -1638336    5007626.4 
   10500        2.625     1852.921    98050.664     -1740273    101947.18   -1638325.8      5002400 
   10600         2.65    1834.0308    99999.952   -1739229.1    100907.84   -1638321.3    4997173.6 
   10700        2.675    1814.4999    102109.44   -1738155.9    99833.257   -1638322.7    4991947.2 
   10800          2.7    1796.2284    104315.71   -1737148.1    98827.966   -1638320.2    4986720.9 
   10900        2.725    1782.4613    106369.15   -1736382.5    98070.501     -1638312    4981494.5 
   11000         2.75    1771.5968    108349.21   -1735776.7    97472.742   -1638303.9    4976268.1 
   11100        2.775    1759.4017    110371.73   -1735099.1    96801.773   -1638297.3    4971041.7 
   11200          2.8    1750.7593    112431.59   -1734616.1    96326.267   -1638289.8    4965815.3 
   11300        2.825    1740.0748    114581.62     -1734027    95738.411   -1638288.6      4960589 
   11400         2.85    1731.5697    116687.98     -1733566    95270.465   -1638295.5    4955362.6 
   11500        2.875    1721.3681    118905.77   -1733011.2    94709.172     -1638302    4950136.2 
   11600          2.9    1713.2582    121215.42   -1732568.2    94262.969   -1638305.3    4944909.8 
   11700        2.925     1704.905    123558.54   -1732112.8    93803.381   -1638309.5    4939683.4 
   11800         2.95    1698.6717    125926.62   -1731774.7    93460.426   -1638314.3      4934457 
   11900        2.975    1691.6867     128319.8   -1731395.2     93076.11   -1638319.1    4929230.7 
   12000            3    1684.8987    130823.23   -1731027.9    92702.638   -1638325.2    4924004.3 
   12100        3.025    1677.5882    133286.51   -1730635.4    92300.414     -1638335    4918777.9 
   12200         3.05    1668.6835    135747.41   -1730155.5    91810.482     -1638345    4913551.5 
   12300        3.075    1660.7981    138150.85   -1729722.9    91376.632   -1638346.3    4908325.1 
   12400          3.1    1651.1591    140508.12   -1729187.2    90846.296     -1638341    4903098.8 
   12500        3.125    1639.9961     142917.9   -1728569.7    90232.108   -1638337.6    4897872.4 
   12600         3.15    1629.1212    145324.45   -1727973.6    89633.775   -1638339.8      4892646 
   12700        3.175    1616.4278    147722.94   -1727279.7    88935.389   -1638344.3    4887419.6 
   12800          3.2    1604.0906     150127.3   -1726603.9    88256.598   -1638347.3    4882193.2 
   12900        3.225    1593.0039    152432.92   -1725994.5    87646.612   -1638347.9    4876966.8 
   13000         3.25     1579.671       154728   -1725258.5    86913.039   -1638345.5    4871740.5 
   13100        3.275    1567.4322    156957.54   -1724583.1    86239.664   -1638343.5    4866514.1 
   13200          3.3    1553.1887    159142.26   -1723802.7    85455.991   -1638346.7    4861287.7 
   13300        3.325    1542.3105    161089.04   -1723210.9    84857.479   -1638353.4    4856061.3 
   13400         3.35    1534.7616    162759.77   -1722796.4    84442.137   -1638354.2    4850834.9 
   13500        3.375    1528.0812    164078.36   -1722419.6    84074.582   -1638345.1    4845608.6 
   13600          3.4    1522.7964    165120.31   -1722117.2    83783.814   -1638333.4    4840382.2 
   13700        3.425    1514.8401    166100.23   -1721675.7     83346.06   -1638329.6    4835155.8 
   13800         3.45      1509.06    167182.24   -1721364.1    83028.043   -1638336.1    4829929.4 
   13900        3.475    1501.4219    168391.02   -1720954.5      82607.8   -1638346.7      4824703 
   14000          3.5    1495.7216    169609.11   -1720646.1     82294.17     -1638352    4819476.6 
   14100        3.525      1490.02    170782.96   -1720328.6    81980.468   -1638348.1    4814250.3 
   14200         3.55    1486.7087    171988.18   -1720139.9    81798.281   -1638341.6    4809023.9 
   14300        3.575    1483.2941    173132.15   -1719948.6    81610.413   -1638338.2    4803797.5 
   14400          3.6    1483.0026    174061.09   -1719931.5    81594.373   -1638337.1    4798571.1 
   14500        3.625    1482.8244    174867.34   -1719922.4    81584.567   -1638337.9    4793344.7 
   14600         3.65    1481.4543    175503.51   -1719851.1    81509.188   -1638341.9    4788118.4 
   14700        3.675    1481.0426    176031.18   -1719831.5    81486.536   -1638344.9      4782892 
   14800          3.7    1479.7288    176607.58   -1719755.3     81414.25   -1638341.1    4777665.6 
   14900        3.725    1477.2418    177313.49   -1719611.9    81277.415   -1638334.5    4772439.2 
   15000         3.75    1473.7964    178255.12   -1719420.9     81087.85     -1638333    4767212.8 
   15100        3.775    1468.2121    179429.82   -1719113.8    80780.606   -1638333.2    4761986.4 
   15200          3.8    1459.6814    180553.38   -1718647.2    80311.245   -1638335.9    4756760.1 
   15300        3.825    1446.8905     181592.6   -1717944.6    79607.497   -1638337.1    4751533.7 
   15400         3.85    1435.1922    182573.75   -1717300.9    78963.857     -1638337    4746307.3 
   15500        3.875    1422.0279    183595.94   -1716581.1    78239.561   -1638341.6    4741080.9 
   15600          3.9    1406.8309    184640.62   -1715756.3    77403.426   -1638352.9    4735854.5 
   15700        3.925     1391.219    185699.97   -1714913.7    76544.467   -1638369.2    4730628.2 
   15800         3.95    1376.1505    186807.47   -1714094.2    75715.402   -1638378.8    4725401.8 
   15900        3.975    1357.0739    187969.01     -1713040    74665.814   -1638374.2    4720175.4 
   16000            4     1339.096    189261.39   -1712036.3    73676.676   -1638359.6      4714949 
   16100        4.025    1319.1431    190684.46   -1710923.1    72578.873   -1638344.2    4709722.6 
   16200         4.05    1299.5446    192199.83   -1709839.2    71500.568   -1638338.6    4704496.2 
   16300        4.075    1279.1387     193827.5   -1708713.2    70377.841   -1638335.4    4699269.9 
   16400          4.1    1259.5764    195660.03   -1707625.3    69301.527   -1638323.8    4694043.5 
   16500        4.125    1241.8045    197710.35     -1706636    68323.721   -1638312.3    4688817.1 
   16600         4.15    1226.2657    199880.83   -1705778.9    67468.781   -1638310.1    4683590.7 
   16700        4.175    1212.9459    202053.85   -1705049.9    66735.933     -1638314    4678364.3 
   16800          4.2    1202.8048    204245.59     -1704489    66177.971     -1638311      4673138 
   16900        4.225    1195.1302    206464.37   -1704054.7    65755.715     -1638299    4667911.6 
   17000         4.25    1187.4949    208791.32   -1703628.5    65335.627   -1638292.8    4662685.2 
   17100        4.275    1182.5332    211121.95   -1703362.1    65062.636   -1638299.4    4657458.8 
   17200          4.3    1175.1824    213551.44   -1702964.7    64658.197   -1638306.5    4652232.4 
   17300        4.325    1170.7737       216019     -1702719    64415.632   -1638303.3      4647006 
   17400         4.35    1166.4713    218578.19   -1702473.2    64178.913   -1638294.3    4641779.7 
   17500        4.375    1164.1539    221158.28   -1702341.6    64051.408   -1638290.2    4636553.3 
   17600          4.4    1162.8479    223752.66   -1702273.5    63979.555   -1638293.9    4631326.9 
   17700        4.425    1162.0057    226316.72   -1702228.1    63933.214   -1638294.9    4626100.5 
   17800         4.45    1160.8686    228893.47   -1702162.1    63870.652   -1638291.4    4620874.1 
   17900        4.475     1160.222    231505.87     -1702129    63835.079   -1638293.9    4615647.8 
   18000          4.5    1157.6273    234125.61   -1701995.7    63692.316   -1638303.4    4610421.4 
   18100        4.525    1152.7721    236755.81   -1701732.4    63425.189   -1638307.2      4605195 
   18200         4.55    1146.5789    239418.98   -1701384.3    63084.437   -1638299.8    4599968.6 
   18300        4.575    1136.7217    242026.07     -1700832    62542.096   -1638289.9    4594742.2 
   18400          4.6    1126.8056       244688     -1700285    61996.517   -1638288.5    4589515.8 
   18500        4.625    1114.4067     247464.9   -1699610.5    61314.336   -1638296.2    4584289.5 
   18600         4.65    1099.4051    250254.31   -1698791.3     60488.95   -1638302.4    4579063.1 
   18700        4.675    1083.8208    253074.31   -1697931.6    59631.505   -1638300.1    4573836.7 
   18800          4.7    1068.6398    255968.08   -1697087.9     58796.25   -1638291.6    4568610.3 
   18900        4.725    1051.5763    258841.46   -1696143.9    57857.422   -1638286.5    4563383.9 
   19000         4.75    1033.4994    261688.05   -1695150.5    56862.835   -1638287.7    4558157.6 
   19100        4.775    1016.0674    264519.13   -1694198.4    55903.734   -1638294.6    4552931.2 
   19200          4.8    999.30514    267349.16   -1693283.5    54981.479     -1638302    4547704.8 
   19300        4.825    981.96667    270133.99   -1692331.7    54027.522   -1638304.2    4542478.4 
   19400         4.85    967.00807    272639.73   -1691508.9    53204.503   -1638304.4      4537252 
   19500        4.875     953.8991    274934.64   -1690784.8    52483.252   -1638301.5    4532025.6 
   19600          4.9    940.06004    277048.11   -1690019.5    51721.831   -1638297.7    4526799.3 
   19700        4.925    930.97169    278991.51   -1689519.3    51221.792   -1638297.5    4521572.9 
   19800         4.95    919.23363    280832.91     -1688875    50575.968     -1638299    4516346.5 
   19900        4.975    909.53153    282534.84   -1688337.1    50042.161   -1638294.9    4511120.1 
   20000            5    903.67065    284103.48   -1688008.1    49719.697   -1638288.4    4505893.7 
   20100        5.025    897.11487    285577.44   -1687644.3        49359   -1638285.3    4500667.4 
   20200         5.05    892.34165    287024.47   -1687381.6    49096.379   -1638285.2      4495441 
   20300        5.075     888.2247    288410.24   -1687155.9    48869.865     -1638286    4490214.6 
   20400          5.1    885.01345     289715.6   -1686974.1    48693.183   -1638280.9    4484988.2 
   20500        5.125    880.31439    290867.94   -1686708.5    48434.642   -1638273.9    4479761.8 
   20600         5.15    876.69667    291779.83   -1686508.8    48235.596   -1638273.2    4474535.4 
   20700        5.175    872.53194     292497.3   -1686285.9    48006.454   -1638279.4    4469309.1 
   20800          5.2    869.10225    293009.36   -1686103.6    47817.754   -1638285.8    4464082.7 
   20900        5.225    864.79394    293493.33   -1685870.3    47580.712   -1638289.6    4458856.3 
   21000         5.25    858.86054    294075.02   -1685551.4    47254.258   -1638297.1    4453629.9 
   21100        5.275    851.49355    294861.16   -1685160.1    46848.928   -1638311.1    4448403.5 
   21200          5.3    845.62704    295728.43   -1684849.9    46526.154   -1638323.7    4443177.2 
   21300        5.325    834.26159    296684.05   -1684228.2    45900.831   -1638327.4    4437950.8 
   21400         5.35    822.51529    297636.93   -1683579.5    45254.553     -1638325    4432724.4 
   21500        5.375    809.66872    298687.52   -1682877.1    44547.738   -1638329.4      4427498 
   21600          5.4    793.80336     299914.8   -1682014.5    43674.831   -1638339.7    4422271.6 
   21700        5.425    777.58255    301254.17   -1681120.1    42782.366   -1638337.7    4417045.2 
   21800         5.45     758.6864    302734.45   -1680072.9    41742.706   -1638330.2    4411818.9 
   21900        5.475    740.07401    304432.77   -1679052.3    40718.657   -1638333.7    4406592.5 
   22000          5.5    720.11837    306262.49   -1677966.4    39620.704   -1638345.7    4401366.1 
   22100        5.525    701.59605    308255.07   -1676954.6    38601.611     -1638353    4396139.7 
   22200         5.55    683.57512     310284.9   -1675954.7    37610.105   -1638344.5    4390913.3 
   22300        5.575    671.18919    312401.54   -1675260.6    36928.634     -1638332      4385687 
   22400          5.6    661.81797    314612.65   -1674738.7    36413.033   -1638325.7    4380460.6 
   22500        5.625    654.13996    316872.42   -1674303.7    35990.591   -1638313.1    4375234.2 
   22600         5.65    649.82271    319135.39   -1674025.7    35753.057   -1638272.7    4370007.8 
   22700        5.675    646.96876    321435.83   -1673786.6    35596.034   -1638190.6    4364781.4 
   22800          5.7    644.46498       323839   -1673520.6    35458.276   -1638062.3      4359555 
   22900        5.725    644.82484    326301.66   -1673334.9    35478.075   -1637856.8    4354328.7 
   23000         5.75    647.96451    328854.25   -1673171.5    35650.819   -1637520.6    4349102.3 
   23100        5.775    651.59844    331531.53   -1672856.5    35850.757   -1637005.7    4343875.9 
   23200          5.8     661.3294    334286.73   -1672654.3    36386.152   -1636268.1    4338649.5 
   23300        5.825    673.43736    337053.81   -1672347.6    37052.328   -1635295.3    4333423.1 
   23400         5.85    689.39707    339899.13   -1672049.3    37930.427   -1634118.8    4328196.8 
   23500        5.875    707.60891    342866.16   -1671727.3    38932.437   -1632794.9    4322970.4 
   23600          5.9    727.35152    345984.35   -1671414.4     40018.67   -1631395.7      4317744 
   23700        5.925    742.19498    349259.15   -1670811.9    40835.352   -1629976.6    4312517.6 
   23800         5.95    757.58822    352678.27   -1670198.6    41682.284   -1628516.4    4307291.2 
   23900        5.975    772.88827    356240.77   -1669435.1    42524.089     -1626911    4302064.8 
   24000            6    788.10242    359963.91   -1668436.5    43361.166   -1625075.3    4296838.5 
   24100        6.025    803.41435    363812.86   -1667272.5    44203.625   -1623068.9    4291612.1 
   24200         6.05    817.35973    367694.18   -1666009.6    44970.895   -1621038.8    4286385.7 
   24300        6.075    828.87233    371560.35   -1664631.2    45604.315   -1619026.9    4281159.3 
   24400          6.1    839.94922    375558.97   -1663159.9    46213.762   -1616946.1    4275932.9 
   24500        6.125    851.85641       379749   -1661627.1    46868.892   -1614758.2    4270706.6 
   24600         6.15    863.58359     384020.9     -1660076    47514.119   -1612561.8    4265480.2 
   24700        6.175    870.93147    388390.16   -1658379.5    47918.397   -1610461.1    4260253.8 
   24800          6.2    877.33512    392829.16   -1656700.4    48270.724   -1608429.6    4255027.4 
   24900        6.225    885.05384    397235.32   -1655092.4    48695.406     -1606397      4249801 
   25000         6.25      890.434    401727.39   -1653353.6    48991.421   -1604362.2    4244574.6 
   25100        6.275    897.25039    406190.06   -1651740.8    49366.456   -1602374.4    4239348.3 
   25200          6.3    902.06705    410434.73   -1650076.5    49631.467     -1600445    4234121.9 
   25300        6.325    910.68024    414196.03     -1648630    50105.363   -1598524.6    4228895.5 
   25400         6.35     920.2398    417628.21   -1647220.7    50631.327   -1596589.4    4223669.1 
   25500        6.375    933.19701    420647.99     -1646022    51344.229   -1594677.7    4218442.7 
   25600          6.4     946.6394    423579.94   -1644884.7    52083.825   -1592800.9    4213216.4 
   25700        6.425    957.30436    426800.33   -1643579.8    52670.608   -1590909.2      4207990 
   25800         6.45    963.84173    430305.02   -1642005.1    53030.293   -1588974.8    4202763.6 
   25900        6.475    966.03031    433906.37     -1640190    53150.707   -1587039.3    4197537.2 
   26000          6.5    962.88195    437559.78   -1638113.9    52977.486   -1585136.4    4192310.8 
   26100        6.525     954.4854    441435.64   -1635736.5     52515.51     -1583221    4187084.4 
   26200         6.55    947.34103    445427.62     -1633368    52122.429   -1581245.6    4181858.1 
   26300        6.575    939.35591     449535.9   -1630918.4     51683.09   -1579235.3    4176631.7 
   26400          6.6    930.09956    453628.17   -1628418.7    51173.808   -1577244.9    4171405.3 
   26500        6.625    924.33729    457774.34   -1626122.4     50856.77   -1575265.6    4166178.9 
   26600         6.65    916.97688    461988.66   -1623734.6    50451.802   -1573282.8    4160952.5 
   26700        6.675    908.69446    466147.98   -1621354.2    49996.106   -1571358.1    4155726.2 
   26800          6.7    899.89106    470224.58   -1619054.2    49511.745   -1569542.4    4150499.8 
   26900        6.725    889.26282     474267.1   -1616741.5    48926.982   -1567814.5    4145273.4 
   27000         6.75    875.55677     478400.5   -1614318.8    48172.879   -1566145.9      4140047 
   27100        6.775    860.25101    482716.35   -1611893.8    47330.761     -1564563    4134820.6 
   27200          6.8    841.98194    487122.04   -1609419.6    46325.602     -1563094    4129594.2 
   27300        6.825     822.9686    491581.21   -1606986.1    45279.494   -1561706.6    4124367.9 
   27400         6.85    803.48929    495969.34   -1604551.9    44207.748   -1560344.2    4119141.5 
   27500        6.875    785.69885    500239.15     -1602203    43228.923   -1558974.1    4113915.1 
   27600          6.9    773.63474    504437.82   -1600009.6    42565.159   -1557444.4    4108688.7 
   27700        6.925    772.45373    509031.92   -1597758.3     42500.18   -1555258.1    4103462.3 
   27800         6.95    789.19613    514280.67   -1595290.9    43421.342   -1551869.5      4098236 
   27900        6.975    821.90899    519925.86   -1592909.4    45221.194   -1547688.3    4093009.6 
   28000            7    846.14815    525795.39   -1590265.5    46554.826   -1543710.7    4087783.2 
   28100        7.025    870.93567    531900.54   -1587836.7    47918.628     -1539918    4082556.8 
   28200         7.05    910.56895    538096.92   -1585647.5     50099.24   -1535548.3    4077330.4 
   28300        7.075    960.91556    544414.71   -1583496.1    52869.295   -1530626.8      4072104 
   28400          7.1    1003.0923    550685.32   -1581244.7    55189.849   -1526054.9    4066877.7 
   28500        7.125     1037.079    556875.49   -1579091.8    57059.786     -1522032    4061651.3 
   28600         7.15     1076.554    563265.69     -1577089    59231.689   -1517857.3    4056424.9 
   28700        7.175    1119.9067     569863.8   -1574841.8    61616.942   -1513224.9    4051198.5 
   28800          7.2    1165.3748    575905.45     -1572790    64118.582   -1508671.4    4045972.1 
   28900        7.225    1206.5794    580872.98   -1570913.8    66385.648   -1504528.1    4040745.8 
   29000         7.25    1253.3224    584694.82   -1569298.4    68957.435     -1500341    4035519.4 
   29100        7.275    1306.3713    588289.84   -1567609.2    71876.167     -1495733      4030293 
   29200          7.3    1366.4097    592071.44   -1566212.6    75179.466   -1491033.1    4025066.6 
   29300        7.325    1420.6793    596010.51   -1564759.8    78165.366   -1486594.5    4019840.2 
   29400         7.35    1478.6908    600098.35   -1563520.4     81357.14   -1482163.3    4014613.8 
   29500        7.375    1542.5222    603860.08   -1562349.7    84869.122   -1477480.5    4009387.5 
   29600          7.4    1606.9887       607227     -1561281    88416.052     -1472865    4004161.1 
   29700        7.425    1657.2828    610668.02   -1559890.4    91183.221   -1468707.2    3998934.7 
   29800         7.45    1703.6038    614463.01   -1558610.6    93731.785   -1464878.8    3993708.3 
   29900        7.475    1747.6395     618705.6   -1557305.7    96154.618     -1461151    3988481.9 
   30000          7.5    1781.9735    623071.26   -1555713.4    98043.667   -1457669.8    3983255.6 
   30100        7.525    1805.7931    627173.51   -1553990.3    99354.214   -1454636.1    3978029.2 
   30200         7.55    1828.7406    631033.07   -1552512.3    100616.78   -1451895.6    3972802.8 
   30300        7.575    1845.6035    635333.76   -1550671.6    101544.57     -1449127    3967576.4 
   30400          7.6    1868.8289    640143.65   -1549039.5    102822.42     -1446217      3962350 
   30500        7.625    1890.8863    645076.94   -1547318.7    104036.02   -1443282.7    3957123.6 
   30600         7.65    1912.7637    649822.86   -1545693.9    105239.71   -1440454.2    3951897.3 
   30700        7.675    1934.1105       654280   -1544146.8     106414.2   -1437732.6    3946670.9 
   30800          7.7    1952.6449    658939.85   -1542518.7    107433.95   -1435084.7    3941444.5 
   30900        7.725    1965.4803    664115.32     -1540650    108140.15   -1432509.8    3936218.1 
   31000         7.75    1976.4314    669731.27   -1538724.8    108742.68   -1429982.1    3930991.7 
   31100        7.775    1986.6922    675715.58   -1536729.2    109307.23   -1427421.9    3925765.4 
   31200          7.8    1996.1065    681875.23     -1534590     109825.2   -1424764.8      3920539 
   31300        7.825    2012.6985    687945.83   -1532763.1    110738.09     -1422025    3915312.6 
   31400         7.85    2026.5642    694194.16   -1530789.5    111500.97   -1419288.5    3910086.2 
   31500        7.875    2040.6292    700300.94   -1528896.6    112274.83   -1416621.7    3904859.8 
   31600          7.9    2056.5237    706185.84   -1527137.6    113149.34   -1413988.2    3899633.4 
   31700        7.925    2065.6681    712058.06   -1524938.3    113652.46   -1411285.8    3894407.1 
   31800         7.95    2085.4292    717613.86   -1523243.8    114739.71   -1408504.1    3889180.7 
   31900        7.975    2099.6862    723154.24   -1521273.6    115524.12   -1405749.5    3883954.3 
   32000            8    2109.4959    728922.02   -1519116.5    116063.85   -1403052.7    3878727.9 
   32100        8.025    2114.2219     734455.1   -1516594.2    116323.87   -1400270.3    3873501.5 
   32200         8.05    2121.5798    739713.53   -1513973.1    116728.71   -1397244.4    3868275.2 
   32300        8.075     2131.041    744761.66   -1511274.6    117249.26   -1394025.4    3863048.8 
   32400          8.1    2140.6474    749813.05   -1508568.2     117777.8   -1390790.4    3857822.4 
   32500        8.125    2152.4201    755049.23     -1505987    118425.53   -1387561.4      3852596 
   32600         8.15    2163.4009    760442.64   -1503221.8    119029.69   -1384192.1    3847369.6 
   32700        8.175    2178.3973    766053.94   -1500483.1    119854.79   -1380628.3    3842143.2 
   32800          8.2    2196.1216    771746.63   -1497879.9    120829.98   -1377049.9    3836916.9 
   32900        8.225    2212.2353    777031.08     -1495330    121716.55   -1373613.4    3831690.5 
   33000         8.25    2228.9868    782087.15   -1492891.5    122638.21   -1370253.3    3826464.1 
   33100        8.275    2246.1393    787298.58   -1490425.5    123581.93   -1366843.6    3821237.7 
   33200          8.3    2265.1751    792691.03   -1488031.9    124629.27   -1363402.6    3816011.3 
   33300        8.325    2281.8725    798018.61   -1485567.7    125547.96   -1360019.7      3810785 
   33400         8.35    2298.8419    802907.56   -1483202.5    126481.62   -1356720.9    3805558.6 
   33500        8.375    2321.2065    807341.14   -1481198.6    127712.11   -1353486.5    3800332.2 
   33600          8.4    2340.0166    811598.02     -1479088    128747.03     -1350341    3795105.8 
   33700        8.425    2354.2407    815941.33   -1476872.7    129529.64   -1347343.1    3789879.4 
   33800         8.45    2370.2357    820510.54   -1474929.5    130409.68   -1344519.8      3784653 
   33900        8.475    2384.6192    825261.99   -1473060.7    131201.06   -1341859.6    3779426.7 
   34000          8.5    2395.6462    830161.59   -1471150.7    131807.76     -1339343    3774200.3 
   34100        8.525    2408.0397    835027.57   -1469397.3    132489.65   -1336907.6    3768973.9 
   34200         8.55     2413.193     840273.8   -1467251.8    132773.18   -1334478.7    3763747.5 
   34300        8.575    2418.8011    845854.69   -1465156.8    133081.74   -1332075.1    3758521.1 
   34400          8.6     2430.943    851165.37   -1463546.5    133749.78   -1329796.7    3753294.8 
   34500        8.625    2437.5274    856454.81   -1461767.7    134112.05   -1327655.6    3748068.4 
   34600         8.65    2439.6961    861641.17     -1459780    134231.37   -1325548.6      3742842 
   34700        8.675    2448.7124    866377.16     -1458112    134727.45   -1323384.5    3737615.6 
   34800          8.7     2462.121    871075.13   -1456674.2    135465.18     -1321209    3732389.2 
   34900        8.725    2467.8632     876312.4     -1454900    135781.12   -1319118.9    3727162.8 
   35000         8.75    2480.5948    881855.62   -1453594.7     136481.6   -1317113.1    3721936.5 
   35100        8.775    2492.1175       887352   -1452249.7    137115.58   -1315134.1    3716710.1 
   35200          8.8    2506.1336    892539.15   -1451074.7    137886.75   -1313187.9    3711483.7 
   35300        8.825    2521.9485    897090.05     -1450072    138756.87   -1311315.1    3706257.3 
   35400         8.85    2532.1743    901722.49   -1448797.1     139319.5   -1309477.6    3701030.9 
   35500        8.875    2543.2103    906558.09   -1447532.4     139926.7   -1307605.7    3695804.6 
   35600          8.9    2562.7862    911256.35   -1446707.5    141003.75   -1305703.8    3690578.2 
   35700        8.925    2570.4075    916036.03   -1445234.9    141423.07   -1303811.9    3685351.8 
   35800         8.95    2575.0286    920875.62   -1443601.3    141677.33   -1301923.9    3680125.4 
   35900        8.975    2584.3297    926377.09   -1442173.2    142189.07   -1299984.1      3674899 
   36000            9    2581.2534    933106.77   -1439973.6    142019.81   -1297953.8    3669672.6 
   36100        9.025    2589.0487    940253.06   -1438264.3    142448.71   -1295815.6    3664446.3 
   36200         9.05    2593.2489     947790.7   -1436192.8     142679.8     -1293513    3659219.9 
   36300        9.075    2592.5707    955899.51   -1433564.3    142642.49   -1290921.8    3653993.5 
   36400          9.1    2602.1291    964234.73   -1431097.9    143168.39   -1287929.5    3648767.1 
   36500        9.125    2590.0304    973762.02   -1427052.6    142502.72   -1284549.9    3643540.7 
   36600         9.15    2579.1109    983642.71   -1422866.8    141901.93   -1280964.9    3638314.4 
   36700        9.175    2572.4064    993256.02     -1418954    141533.05   -1277420.9      3633088 
   36800          9.2    2554.6094    1003289.5   -1414606.4    140553.87   -1274052.6    3627861.6 
   36900        9.225    2530.6522    1012967.8   -1410042.5    139235.75   -1270806.8    3622635.2 
   37000         9.25    2513.6547    1021058.7   -1405837.8    138300.55   -1267537.3    3617408.8 
   37100        9.275    2493.3731    1027426.4   -1401296.8    137184.66   -1264112.1    3612182.4 
   37200          9.3    2480.6273    1032641.6     -1397004    136483.39   -1260520.6    3606956.1 
   37300        9.325    2475.0484    1037499.1   -1393051.8    136176.45   -1256875.4    3601729.7 
   37400         9.35    2466.3746    1042238.3   -1388941.1    135699.22   -1253241.9    3596503.3 
   37500        9.375    2474.2176    1047444.8   -1385683.5    136130.74   -1249552.8    3591276.9 
   37600          9.4    2477.0206    1052981.6   -1382019.8    136284.95   -1245734.8    3586050.5 
   37700        9.425    2483.5659    1057708.1   -1378462.6    136645.07   -1241817.5    3580824.2 
   37800         9.45    2491.2186    1061486.5   -1374956.6    137066.13   -1237890.5    3575597.8 
   37900        9.475    2497.8518    1064537.7     -1371451    137431.08   -1234019.9    3570371.4 
   38000          9.5    2495.8925    1067598.1   -1367528.1    137323.28   -1230204.9      3565145 
   38100        9.525    2488.9925    1070481.1   -1363349.5    136943.65   -1226405.9    3559918.6 
   38200         9.55    2478.5961    1073654.9   -1358981.4    136371.64   -1222609.7    3554692.2 
   38300        9.575    2462.3814    1077878.4   -1354348.1    135479.51   -1218868.6    3549465.9 
   38400          9.6     2436.452    1083693.7     -1349316    134052.88   -1215263.1    3544239.5 
   38500        9.625     2398.684    1091100.2   -1343809.6     131974.9   -1211834.7    3539013.1 
   38600         9.65    2362.9601    1099037.1   -1338574.6    130009.38   -1208565.2    3533786.7 
   38700        9.675     2328.545    1107111.8     -1333540    128115.87   -1205424.1    3528560.3 
   38800          9.7    2289.8347    1115676.4   -1328357.4    125986.04   -1202371.3      3523334 
   38900        9.725    2253.5351    1125667.9   -1323355.6    123988.85   -1199366.8    3518107.6 
   39000         9.75    2224.1985    1136490.1   -1318746.4    122374.76   -1196371.6    3512881.2 
   39100        9.775    2196.1932    1147702.7   -1314184.8    120833.91   -1193350.9    3507654.8 
   39200          9.8    2173.9321    1159346.2   -1309930.9    119609.12   -1190321.8    3502428.4 
   39300        9.825    2153.0443    1170731.8   -1305777.8    118459.87   -1187317.9      3497202 
   39400         9.85    2135.3445    1181563.5   -1301842.5    117486.04   -1184356.5    3491975.7 
   39500        9.875    2122.6465    1192167.9   -1298237.3    116787.39     -1181450    3486749.3 
   39600          9.9    2105.9905    1202905.9   -1294478.6    115870.99   -1178607.6    3481522.9 
   39700        9.925    2089.8056    1213700.6     -1290787     114980.5   -1175806.5    3476296.5 
   39800         9.95    2076.8099    1223907.8   -1287252.7    114265.48   -1172987.2    3471070.1 
   39900        9.975    2063.3454    1232880.5   -1283600.8    113524.67   -1170076.1    3465843.8 
   40000           10    2054.1264    1240985.9   -1280059.1    113017.44   -1167041.7    3460617.4 
   40100       10.025     2051.773    1248504.4   -1276807.7    112887.95   -1163919.7      3455391 
   40200        10.05    2055.6738    1256092.2   -1273862.3    113102.57   -1160759.8    3450164.6 
   40300       10.075    2055.6562    1263481.2   -1270678.1    113101.61   -1157576.5    3444938.2 
   40400         10.1    2059.7709    1270021.7   -1267686.8       113328   -1154358.8    3439711.8 
   40500       10.125     2061.164    1275134.9   -1264538.4    113404.64   -1151133.8    3434485.5 
   40600        10.15    2050.0812    1279569.3   -1260751.3    112794.87   -1147956.4    3429259.1 
   40700       10.175    2036.6016      1283706   -1256871.8    112053.23   -1144818.6    3424032.7 
   40800         10.2    2016.4493    1287137.6   -1252600.4    110944.45   -1141655.9    3418806.3 
   40900       10.225    1991.5983    1291209.7   -1247999.8    109577.16   -1138422.6    3413579.9 
   41000        10.25    1968.1551      1296381   -1243409.9    108287.32   -1135122.6    3408353.6 
   41100       10.275     1942.243    1302526.7   -1238653.6    106861.64   -1131791.9    3403127.2 
   41200         10.3    1916.4621    1309748.9   -1233893.4    105443.19   -1128450.2    3397900.8 
   41300       10.325    1895.5504    1317339.4   -1229372.7    104292.63   -1125080.1    3392674.4 
   41400        10.35    1877.8369    1324594.4   -1225001.5    103318.04   -1121683.4      3387448 
   41500       10.375     1867.151    1331871.9   -1221018.2    102730.11   -1118288.1    3382221.6 
   41600         10.4    1860.4029    1339197.8   -1217294.1    102358.83   -1114935.3    3376995.3 
   41700       10.425    1855.6139    1347267.9     -1213736    102095.34   -1111640.7    3371768.9 
   41800        10.45    1853.5828    1356283.1   -1210365.1    101983.59   -1108381.5    3366542.5 
   41900       10.475    1852.9203    1366167.4   -1207081.4    101947.14   -1105134.3    3361316.1 
   42000         10.5    1847.4604    1376645.5   -1203556.6    101646.73   -1101909.9    3356089.7 
   42100       10.525    1831.2207    1387839.2   -1199491.8    100753.23   -1098738.6    3350863.4 
   42200        10.55    1804.4308    1399797.5   -1194911.1    99279.262   -1095631.8      3345637 
   42300       10.575    1768.1958      1412489   -1189880.7    97285.619   -1092595.1    3340410.6 
   42400         10.6    1723.3625    1425637.4   -1184463.5    94818.904   -1089644.6    3335184.2 
   42500       10.625    1669.7501    1438757.4   -1178660.1    91869.168   -1086790.9    3329957.8 
   42600        10.65    1611.5375    1452224.1   -1172702.5    88666.324   -1084036.2    3324731.4 
   42700       10.675     1553.634    1464907.2   -1166826.4     85480.49   -1081345.9    3319505.1 
   42800         10.7    1498.2703    1476145.5   -1161119.6    82434.398   -1078685.2    3314278.7 
   42900       10.725    1450.1741    1485509.4   -1155834.9    79788.158   -1076046.7    3309052.3 
   43000        10.75    1407.5749    1492619.6   -1150871.6    77444.363   -1073427.3    3303825.9 
   43100       10.775    1373.4917    1497819.1   -1146388.8    75569.117   -1070819.7    3298599.5 
   43200         10.8    1346.3923      1501918   -1142294.5    74078.114   -1068216.3    3293373.2 
   43300       10.825    1316.6612    1505711.3   -1138072.3    72442.319   -1065629.9    3288146.8 
   43400        10.85    1291.0641    1510027.4   -1134128.4    71033.972   -1063094.4    3282920.4 
   43500       10.875    1263.1774    1515686.1   -1130119.9    69499.655   -1060620.3      3277694 
   43600         10.9    1229.6119    1522656.2   -1125830.4    67652.893   -1058177.5    3272467.6 
   43700       10.925    1196.9763    1529819.1   -1121590.3    65857.288     -1055733    3267241.2 
   43800        10.95    1163.5379    1536736.2   -1117309.9    64017.519   -1053292.4    3262014.9 
   43900       10.975     1132.575    1543603.3   -1113189.7    62313.949   -1050875.7    3256788.5 
   44000           11    1103.4044    1550492.6   -1109167.1    60708.989   -1048458.1    3251562.1 
   44100       11.025    1078.0808    1558345.2   -1105276.4    59315.695   -1045960.7    3246335.7 
   44200        11.05    1059.7473    1567287.8   -1101604.6     58306.99   -1043297.6    3241109.3 
   44300       11.075    1053.0111    1577009.3   -1098227.7    57936.364   -1040291.3      3235883 
   44400         11.1    1060.0645    1587745.7   -1094824.3    58324.439   -1036499.8    3230656.6 
   44500       11.125    1078.4444    1599714.1   -1090669.6    59335.699   -1031333.9    3225430.2 
   44600        11.15    1119.4929    1612782.9   -1086432.7    61594.176   -1024838.5    3220203.8 
   44700       11.175    1162.2682    1627210.3   -1082000.2    63947.661   -1018052.5    3214977.4 
   44800         11.2    1193.0492    1642704.3   -1077490.3    65641.219   -1011849.1      3209751 
   44900       11.225    1209.2005    1658247.5   -1072581.3    66529.863   -1006051.5    3204524.7 
   45000        11.25    1218.4579    1674213.2   -1067113.3    67039.202   -1000074.1    3199298.3 
   45100       11.275    1233.7533    1690194.5   -1061621.4     67880.75   -993740.69    3194071.9 
   45200         11.3    1249.6916    1704859.3     -1056077    68757.667    -987319.3    3188845.5 
   45300       11.325    1269.5623    1717378.2   -1050831.2    69850.952   -980980.29    3183619.1 
   45400        11.35     1287.701    1726417.8   -1045412.2    70848.934   -974563.24    3178392.8 
   45500       11.375    1311.4798    1733012.3   -1039988.9    72157.239   -967831.64    3173166.4 
   45600         11.4    1330.5379    1737494.7     -1034012    73205.812   -960806.16      3167940 
   45700       11.425    1349.6476    1741741.4     -1028017    74257.222   -953759.75    3162713.6 
   45800        11.45    1359.6946    1747770.8   -1021697.9    74810.003   -946887.87    3157487.2 
   45900       11.475    1354.9103    1756449.4   -1014610.6    74546.771   -940063.79    3152260.8 
   46000         11.5    1341.9621    1766652.7   -1006936.3    73834.365   -933101.95    3147034.5 
   46100       11.525    1317.9653    1776977.4    -998683.7    72514.069   -926169.63    3141808.1 
   46200        11.55    1278.7667    1787399.5   -990040.76    70357.374   -919683.38    3136581.7 
   46300       11.575    1225.6985    1798832.3   -981125.18    67437.575    -913687.6    3131355.3 
   46400         11.6     1178.395      1811910   -972486.34     64834.95   -907651.39    3126128.9 
   46500       11.625    1152.9394    1825848.4   -964425.87    63434.393   -900991.48    3120902.6 
   46600        11.65    1145.9917    1840140.1   -956623.76    63052.131   -893571.63    3115676.2 
   46700       11.675    1157.8123    1854563.5   -949304.56    63702.498   -885602.06    3110449.8 
   46800         11.7    1179.9984    1869546.2   -942085.21    64923.172   -877162.04    3105223.4 
   46900       11.725    1217.1155    1885833.3   -935152.89    66965.341   -868187.54      3099997 
   47000        11.75    1257.9106    1902485.1   -927922.26    69209.878   -858712.38    3094770.6 
   47100       11.775    1308.1482    1920092.7   -920755.82    71973.933   -848781.89    3089544.3 
   47200         11.8    1363.0761    1939213.5   -913292.41    74996.051   -838296.36    3084317.9 
   47300       11.825    1427.8548    1959186.8   -905797.24    78560.156   -827237.08    3079091.5 
   47400        11.85    1496.3274    1979024.1   -898238.21    82327.499   -815910.71    3073865.1 
   47500       11.875    1566.9675    1997596.8   -890961.66    86214.097   -804747.56    3068638.7 
   47600         11.9    1641.5796    2014321.4   -884225.31    90319.232   -793906.08    3063412.4 
   47700       11.925     1723.332    2029340.1   -877953.36    94817.229   -783136.13      3058186 
   47800        11.95    1818.1631    2042613.8   -872297.03    100034.81   -772262.22    3052959.6 
   47900       11.975    1910.5721    2054641.8   -866670.55    105119.13   -761551.43    3047733.2 
   48000           12    1994.2322    2065579.5   -861088.42    109722.08   -751366.34    3042506.8 
   48100       12.025    2062.9223    2076513.3   -855278.05    113501.39   -741776.66    3037280.4 
   48200        12.05    2115.6109    2088280.8   -848986.47     116400.3   -732586.17    3032054.1 
   48300       12.075    2159.6368    2101391.1   -842502.63    118822.59   -723680.04    3026827.7 
   48400         12.1    2188.6675    2115032.1   -835517.19    120419.85   -715097.34    3021601.3 
   48500       12.125    2209.3226    2128490.9   -828254.07    121556.29   -706697.79    3016374.9 
   48600        12.15    2235.8572    2142559.3   -821345.69    123016.21   -698329.47    3011148.5 
   48700       12.175    2261.7493    2157335.7   -814387.49    124440.79    -689946.7    3005922.2 
   48800         12.2    2290.6735      2172702   -807728.04    126032.19   -681695.85    3000695.8 
   48900       12.225    2319.5434      2188202   -801169.07     127620.6   -673548.47    2995469.4 
   49000        12.25    2344.6627    2203646.6   -794447.44    129002.66   -665444.78      2990243 
   49100       12.275    2364.7077    2219441.3   -787394.58    130105.53   -657289.05    2985016.6 
   49200         12.3    2379.8252    2236006.6   -779982.32    130937.29   -649045.02    2979790.2 
   49300       12.325    2389.3487    2253032.4   -772081.91    131461.27   -640620.64    2974563.9 
   49400        12.35    2397.6935    2270857.8   -763924.61     131920.4   -632004.21    2969337.5 
   49500       12.375     2398.608    2288840.1   -755243.75    131970.71   -623273.03    2964111.1 
   49600         12.4    2402.8724    2306786.6   -746745.12    132205.34   -614539.78    2958884.7 
   49700       12.425    2404.6825    2324987.8   -738020.64    132304.93    -605715.7    2953658.3 
   49800        12.45    2414.3802    2343081.3    -729564.2     132838.5    -596725.7      2948432 
   49900       12.475    2423.7091    2360644.2   -721059.33    133351.77   -587707.56    2943205.6 
   50000         12.5    2441.7099    2377355.1   -713079.08    134342.17   -578736.91    2937979.2 
Loop time of 413.354 on 24 procs for 50000 steps with 425652 atoms

Performance: 2.613 ns/day, 9.186 hours/ns, 120.962 timesteps/s
99.8% CPU use with 24 MPI tasks x 1 OpenMP threads

MPI task timing breakdown:
Section |  min time  |  avg time  |  max time  |%varavg| %total
---------------------------------------------------------------
Pair    | 190.38     | 199.85     | 210.65     |  38.2 | 48.35
Neigh   | 0.088482   | 0.091488   | 0.094042   |   0.5 |  0.02
Comm    | 42.446     | 44.508     | 48.09      |  25.5 | 10.77
Output  | 13.449     | 13.451     | 13.466     |   0.1 |  3.25
Modify  | 126.17     | 135.26     | 145.39     |  38.4 | 32.72
Other   |            | 20.19      |            |       |  4.89

Nlocal:        17735.5 ave       18323 max       16700 min
Histogram: 8 0 0 0 0 0 0 0 4 12
Nghost:        24413.1 ave       25305 max       22786 min
Histogram: 8 0 0 0 0 0 0 0 1 15
Neighs:         0.00000 ave           0 max           0 min
Histogram: 24 0 0 0 0 0 0 0 0 0

Total # of neighbors = 0
Ave neighs/atom = 0.0000000
Neighbor list builds = 467
Dangerous builds = 0


---------------------------------------------------------------------
      Device Time Info (average): 
---------------------------------------------------------------------
Data Transfer:   22.2409 s.
Neighbor copy:   0.0178 s.
Neighbor build:  1.5839 s.
Force calc:      115.7739 s.
Device Overhead: 67.3315 s.
Average split:   1.0000.
Lanes / atom:    4.
Vector width:    32.
Max Mem / Proc:  76.09 MB.
CPU Neighbor:    0.2735 s.
CPU Cast/Pack:   19.0624 s.
CPU Driver_Time: 0.9269 s.
CPU Idle_Time:   52.0318 s.
---------------------------------------------------------------------

Total wall time: 0:07:02
