LAMMPS (29 Sep 2021)
  using 1 OpenMP thread(s) per MPI task
Reading data file ...
  orthogonal box = (-0.20845477 -0.21031445 0.0000000) to (101.53226 101.53412 619.83200)
  1 by 2 by 12 MPI processor grid
  reading atoms ...
  442392 atoms
  reading velocities ...
  442392 velocities
  read_data CPU = 4.769 seconds
221196 atoms in group g_left
221196 atoms in group g_right

CITE-CITE-CITE-CITE-CITE-CITE-CITE-CITE-CITE-CITE-CITE-CITE-CITE

Your simulation uses code contributions which should be cited:
- GPU package (short-range, long-range and three-body potentials):
The log file lists these citations in BibTeX format.

CITE-CITE-CITE-CITE-CITE-CITE-CITE-CITE-CITE-CITE-CITE-CITE-CITE


--------------------------------------------------------------------------
- Using acceleration for eam/alloy:
-  with 12 proc(s) per device.
-  Horizontal vector operations: ENABLED
-  Shared memory system: No
--------------------------------------------------------------------------
Device 0: Tesla V100-SXM2-32GB, 80 CUs, 28/32 GB, 1.5 GHZ (Mixed Precision)
Device 1: Tesla V100-SXM2-32GB, 80 CUs, 1.5 GHZ (Mixed Precision)
--------------------------------------------------------------------------

Initializing Device and compiling on process 0...Done.
Initializing Devices 0-1 on core 0...Done.
Initializing Devices 0-1 on core 1...Done.
Initializing Devices 0-1 on core 2...Done.
Initializing Devices 0-1 on core 3...Done.
Initializing Devices 0-1 on core 4...Done.
Initializing Devices 0-1 on core 5...Done.
Initializing Devices 0-1 on core 6...Done.
Initializing Devices 0-1 on core 7...Done.
Initializing Devices 0-1 on core 8...Done.
Initializing Devices 0-1 on core 9...Done.
Initializing Devices 0-1 on core 10...Done.
Initializing Devices 0-1 on core 11...Done.

Setting up Verlet run ...
  Unit style    : metal
  Current step  : 0
  Time step     : 0.00025
Per MPI rank memory allocation (min/avg/max) = 8.377 | 10.98 | 11.78 Mbytes
Step Time Temp Press PotEng KinEng TotEng Volume 
       0            0    2018.4823    16395.702   -1713191.5    115423.93   -1597767.6    6416222.9 
     100        0.025    2018.6419    16401.509   -1713204.8    115433.06   -1597771.7    6411047.1 
     200         0.05    2018.7136    16409.499     -1713197    115437.16   -1597759.8    6405871.3 
     300        0.075      2018.83    16410.745   -1713194.5    115443.81   -1597750.7    6400695.6 
     400          0.1    2018.2692    16435.288   -1713164.5    115411.75   -1597752.7    6395519.8 
     500        0.125    2018.8317    16436.827   -1713199.1    115443.91   -1597755.2      6390344 
     600         0.15    2018.7653    16451.143   -1713196.1    115440.12     -1597756    6385168.2 
     700        0.175    2018.6987    16469.287   -1713192.5    115436.31   -1597756.1    6379992.5 
     800          0.2    2019.2288    16486.949   -1713223.6    115466.62     -1597757    6374816.7 
     900        0.225    2018.5808    16502.865   -1713188.7    115429.57   -1597759.1    6369640.9 
    1000         0.25    2018.2991    16509.641   -1713179.4    115413.46     -1597766    6364465.1 
    1100        0.275    2018.4528    16504.987   -1713194.7    115422.25   -1597772.4    6359289.3 
    1200          0.3    2018.7603     16511.45   -1713209.9    115439.83   -1597770.1    6354113.6 
    1300        0.325    2018.5938    16526.625   -1713193.8    115430.31   -1597763.5    6348937.8 
    1400         0.35    2018.3653    16542.776   -1713187.1    115417.24   -1597769.8      6343762 
    1500        0.375    2018.3959    16559.568     -1713192    115418.99     -1597773    6338586.2 
    1600          0.4    2018.7523    16560.267   -1713200.8    115439.37   -1597761.4    6333410.5 
    1700        0.425    2018.8084    16560.262   -1713195.7    115442.58   -1597753.1    6328234.7 
    1800         0.45    2018.6644    16573.691   -1713194.1    115434.35   -1597759.8    6323058.9 
    1900        0.475    2018.4258    16581.385   -1713187.9     115420.7   -1597767.2    6317883.1 
    2000          0.5    2018.7091    16566.405   -1713201.9     115436.9     -1597765    6312707.4 
    2100        0.525    2018.6522    16551.441   -1713201.1    115433.65   -1597767.4    6307531.6 
    2200         0.55    2018.1369    16561.547     -1713181    115404.18   -1597776.9    6302355.8 
    2300        0.575    2018.2468    16571.976     -1713188    115410.47   -1597777.5      6297180 
    2400          0.6     2018.716    16584.771   -1713206.4     115437.3   -1597769.1    6292004.3 
    2500        0.625    2018.7527    16580.847   -1713205.2     115439.4   -1597765.8    6286828.5 
    2600         0.65     2018.638    16588.849     -1713202    115432.84   -1597769.2    6281652.7 
    2700        0.675    2018.0913    16617.854   -1713175.3    115401.57   -1597773.7    6276476.9 
    2800          0.7    2018.6824    16612.981   -1713208.4    115435.38     -1597773    6271301.2 
    2900        0.725    2018.6857    16623.505     -1713205    115435.56   -1597769.4    6266125.4 
    3000         0.75    2018.2481    16649.622   -1713179.5    115410.54   -1597768.9    6260949.6 
    3100        0.775    2018.2511    16665.097   -1713180.7    115410.71     -1597770    6255773.8 
    3200          0.8    2018.8754    16670.328   -1713214.5    115446.41   -1597768.1    6250598.1 
    3300        0.825     2018.888    16689.579   -1713209.4    115447.13   -1597762.2    6245422.3 
    3400         0.85    2018.3451    16712.938   -1713176.8    115416.09   -1597760.7    6240246.5 
    3500        0.875    2018.5522     16712.51   -1713191.8    115427.93   -1597763.9    6235070.7 
    3600          0.9    2018.5636    16719.795   -1713191.6    115428.58     -1597763      6229895 
    3700        0.925    2018.6697    16730.399   -1713189.3    115434.65   -1597754.7    6224719.2 
    3800         0.95    2018.8892    16740.369   -1713196.8     115447.2   -1597749.6    6219543.4 
    3900        0.975    2018.6847    16776.986   -1713175.6     115435.5   -1597740.1    6214367.6 
    4000            1    2019.2191    16800.229   -1713192.1    115466.06     -1597726    6209191.9 
    4100        1.025    2019.5024    16823.527   -1713206.1    115482.27   -1597723.9    6204016.1 
    4200         1.05    2019.2606    16842.851   -1713206.9    115468.44   -1597738.5    6198840.3 
    4300        1.075    2018.7822    16860.134   -1713191.2    115441.08   -1597750.1    6193664.5 
    4400          1.1    2019.4757    16827.601   -1713225.5    115480.74   -1597744.8    6188488.7 
    4500        1.125    2022.1615    16736.703   -1713375.2    115634.32   -1597740.9      6183313 
    4600         1.15    2025.2492    16637.753   -1713551.3    115810.89   -1597740.4    6178137.2 
    4700        1.175      2031.46    16432.919   -1713901.4    116166.04   -1597735.3    6172961.4 
    4800          1.2    2044.1112    16244.286   -1714615.7    116889.48   -1597726.2    6167785.6 
    4900        1.225    2040.3942     16830.14   -1714399.2    116676.93   -1597722.2    6162609.9 
    5000         1.25    2040.3346    17859.698   -1714397.2    116673.52   -1597723.6    6157434.1 
    5100        1.275    2033.2938    18894.749   -1713993.1     116270.9   -1597722.2    6152258.3 
    5200          1.3    2025.6219    19954.027   -1713556.1     115832.2   -1597723.9    6147082.5 
    5300        1.325    2021.6674    20892.546   -1713335.1    115606.07   -1597729.1    6141906.8 
    5400         1.35    2012.8788    21850.993   -1712831.9    115103.51   -1597728.4      6136731 
    5500        1.375    2008.7597    22893.885   -1712588.8    114867.96   -1597720.8    6131555.2 
    5600          1.4    2000.7561    24012.833   -1712129.1    114410.29   -1597718.8    6126379.4 
    5700        1.425    1992.8231    25049.089   -1711673.1    113956.65   -1597716.5    6121203.7 
    5800         1.45    1985.8305    26167.352   -1711261.5    113556.79   -1597704.7    6116027.9 
    5900        1.475    1980.3813    27178.437   -1710943.9    113245.18   -1597698.7    6110852.1 
    6000          1.5    1971.1049    28205.176   -1710419.6    112714.73   -1597704.8    6105676.3 
    6100        1.525    1966.4895    29158.256   -1710154.6     112450.8   -1597703.8    6100500.6 
    6200         1.55    1959.3431    30159.776   -1709739.6    112042.15   -1597697.5    6095324.8 
    6300        1.575    1952.6534    31155.685   -1709360.9     111659.6   -1597701.3      6090149 
    6400          1.6    1945.5587    32169.729     -1708953    111253.91   -1597699.1    6084973.2 
    6500        1.625    1939.3425    33159.603   -1708582.7    110898.44   -1597684.3    6079797.5 
    6600         1.65    1932.1896    34098.619   -1708171.9    110489.41   -1597682.5    6074621.7 
    6700        1.675    1924.9377    35048.752   -1707772.7    110074.72   -1597697.9    6069445.9 
    6800          1.7    1917.6518    36031.907   -1707358.7    109658.09   -1597700.6    6064270.1 
    6900        1.725    1911.7378     37007.47   -1706999.8    109319.91   -1597679.9    6059094.4 
    7000         1.75    1904.8137    37987.207   -1706589.2    108923.96   -1597665.2    6053918.6 
    7100        1.775    1898.0659     38966.56     -1706205     108538.1   -1597666.9    6048742.8 
    7200          1.8    1891.1759     39924.65   -1705816.8     108144.1   -1597672.7      6043567 
    7300        1.825    1884.4385    40902.665   -1705432.4    107758.83   -1597673.6    6038391.3 
    7400         1.85    1877.2447    41893.494     -1705019    107347.47   -1597671.6    6033215.5 
    7500        1.875    1871.0781    42862.214   -1704663.8    106994.84     -1597669    6028039.7 
    7600          1.9     1863.508    43845.528   -1704231.9    106561.95   -1597669.9    6022863.9 
    7700        1.925    1857.3242    44796.537     -1703879    106208.34   -1597670.7    6017688.1 
    7800         1.95    1850.5845    45739.468   -1703488.6    105822.95   -1597665.7    6012512.4 
    7900        1.975     1844.169    46612.245   -1703117.7    105456.08   -1597661.6    6007336.6 
    8000            2    1837.3542    47405.337   -1702731.2    105066.39   -1597664.8    6002160.8 
    8100        2.025     1833.323    48028.334   -1702507.2    104835.87   -1597671.3      5996985 
    8200         2.05    1828.9958    48541.073   -1702264.7    104588.43   -1597676.3    5991809.3 
    8300        2.075    1824.4947    49068.974   -1702010.1    104331.04     -1597679    5986633.5 
    8400          2.1    1820.1373    49627.367   -1701763.8    104081.87     -1597682    5981457.7 
    8500        2.125    1814.9617    50343.965   -1701471.8    103785.91   -1597685.9    5976281.9 
    8600         2.15    1809.8147    51130.341   -1701182.7    103491.58   -1597691.1    5971106.2 
    8700        2.175    1802.3913    52000.433   -1700764.9    103067.09   -1597697.8    5965930.4 
    8800          2.2     1795.018    52914.759     -1700346    102645.45   -1597700.5    5960754.6 
    8900        2.225    1786.3382    53928.471   -1699850.4    102149.11   -1597701.3    5955578.8 
    9000         2.25    1776.2453    54998.357     -1699276    101571.97     -1597704    5950403.1 
    9100        2.275    1768.2496     56029.53   -1698823.7    101114.74     -1597709    5945227.3 
    9200          2.3    1758.7741    57096.953   -1698284.6     100572.9   -1597711.7    5940051.5 
    9300        2.325    1748.8961     58182.03   -1697720.4    100008.04   -1597712.4    5934875.7 
    9400         2.35    1739.0116    59275.513   -1697160.4    99442.811   -1597717.6      5929700 
    9500        2.375    1729.4215    60443.148   -1696615.4    98894.417   -1597720.9    5924524.2 
    9600          2.4    1718.9176    61650.361   -1696017.9    98293.765   -1597724.2    5919348.4 
    9700        2.425    1708.2368    62850.712   -1695410.7    97683.003   -1597727.7    5914172.6 
    9800         2.45    1698.2665    64062.583   -1694841.2    97112.864   -1597728.4    5908996.9 
    9900        2.475    1687.6758    65315.598   -1694235.7    96507.253   -1597728.4    5903821.1 
   10000          2.5    1676.8924    66588.118   -1693623.1    95890.619   -1597732.5    5898645.3 
   10100        2.525     1666.391    67815.475   -1693030.9     95290.11   -1597740.8    5893469.5 
   10200         2.55    1656.0507    69071.137   -1692445.8    94698.817     -1597747    5888293.8 
   10300        2.575    1645.7874    70358.239   -1691853.1    94111.922   -1597741.2      5883118 
   10400          2.6    1635.5094    71634.792   -1691251.5    93524.193   -1597727.3    5877942.2 
   10500        2.625    1625.9336    72856.827   -1690696.3    92976.612   -1597719.7    5872766.4 
   10600         2.65    1615.7724    74064.711   -1690119.2     92395.56   -1597723.6    5867590.7 
   10700        2.675    1604.2257    75314.625   -1689469.8    91735.279   -1597734.6    5862414.9 
   10800          2.7    1595.2912    76537.912   -1688964.9    91224.372   -1597740.5    5857239.1 
   10900        2.725    1585.8569    77822.542     -1688424    90684.885   -1597739.1    5852063.3 
   11000         2.75    1576.1549    79143.447   -1687860.8    90130.093   -1597730.7    5846887.5 
   11100        2.775    1569.3492    80493.368   -1687464.6    89740.918   -1597723.7    5841711.8 
   11200          2.8    1560.9538    81908.508     -1686989     89260.84   -1597728.2      5836536 
   11300        2.825     1554.765    83339.864   -1686642.3    88906.942   -1597735.4    5831360.2 
   11400         2.85    1546.7708    84733.029   -1686185.1    88449.809   -1597735.3    5826184.4 
   11500        2.875    1540.7182    86027.078     -1685835    88103.699   -1597731.3    5821008.7 
   11600          2.9    1534.7499    87291.664   -1685493.4    87762.411     -1597731    5815832.9 
   11700        2.925    1528.7933    88545.096   -1685151.8    87421.789     -1597730    5810657.1 
   11800         2.95    1523.1392    89749.529   -1684821.4    87098.467   -1597722.9    5805481.3 
   11900        2.975    1518.7153    90858.458     -1684561    86845.495   -1597715.5    5800305.6 
   12000            3    1514.2936    91940.681   -1684302.2    86592.647   -1597709.5    5795129.8 
   12100        3.025    1507.5495    93044.811   -1683912.7    86206.996   -1597705.7      5789954 
   12200         3.05    1503.6855     94154.66   -1683692.4    85986.036   -1597706.3    5784778.2 
   12300        3.075    1498.5853    95347.802   -1683405.2    85694.388   -1597710.9    5779602.5 
   12400          3.1    1494.1294    96535.314   -1683152.6    85439.583     -1597713    5774426.7 
   12500        3.125     1488.707    97735.728   -1682844.6    85129.515   -1597715.1    5769250.9 
   12600         3.15     1484.418    98906.365   -1682604.1    84884.254   -1597719.9    5764075.1 
   12700        3.175    1480.0099    100047.16   -1682352.6    84632.181   -1597720.4    5758899.4 
   12800          3.2    1474.1069    101156.97   -1682009.9     84294.63   -1597715.3    5753723.6 
   12900        3.225    1468.4244    102245.35   -1681684.7    83969.685     -1597715    5748547.8 
   13000         3.25    1463.9192    103291.99     -1681432     83712.06   -1597719.9      5743372 
   13100        3.275    1458.6169    104316.02   -1681128.3    83408.853   -1597719.5    5738196.3 
   13200          3.3    1452.9809     105384.6   -1680802.8    83086.572   -1597716.2    5733020.5 
   13300        3.325    1448.2414    106416.02   -1680536.3     82815.55   -1597720.7    5727844.7 
   13400         3.35    1442.0542    107476.19   -1680182.6     82461.74   -1597720.9    5722668.9 
   13500        3.375    1436.0504    108483.07   -1679831.1    82118.423   -1597712.7    5717493.2 
   13600          3.4    1430.4725    109461.42   -1679508.8    81799.459   -1597709.4    5712317.4 
   13700        3.425    1424.7162     110415.3   -1679182.3    81470.293     -1597712    5707141.6 
   13800         3.45    1418.4425       111396   -1678819.6    81111.542     -1597708    5701965.8 
   13900        3.475    1412.2384    112345.06   -1678460.4    80756.771   -1597703.6    5696790.1 
   14000          3.5    1406.4816    113220.16   -1678137.6    80427.576     -1597710    5691614.3 
   14100        3.525    1400.9027    114025.63   -1677823.7    80108.555   -1597715.2    5686438.5 
   14200         3.55    1395.2534    114783.74   -1677505.1    79785.508   -1597719.6    5681262.7 
   14300        3.575    1390.1417    115485.94   -1677223.1    79493.201   -1597729.9    5676086.9 
   14400          3.6    1385.5461    116119.56   -1676966.3    79230.411   -1597735.9    5670911.2 
   14500        3.625    1380.6586    116745.16   -1676677.2    78950.926   -1597726.2    5665735.4 
   14600         3.65    1376.4666    117340.08   -1676422.7    78711.209   -1597711.5    5660559.6 
   14700        3.675    1371.0364    117925.38   -1676107.2    78400.691   -1597706.5    5655383.8 
   14800          3.7    1364.7475    118473.37   -1675748.8    78041.074   -1597707.7    5650208.1 
   14900        3.725    1359.5569    119087.94   -1675452.5    77744.255   -1597708.3    5645032.3 
   15000         3.75    1353.2646    119773.05   -1675097.2    77384.442   -1597712.8    5639856.5 
   15100        3.775    1347.9095    120488.59   -1674797.9    77078.218   -1597719.7    5634680.7 
   15200          3.8    1340.5539    121288.71   -1674382.8    76657.597   -1597725.2      5629505 
   15300        3.825    1335.2535    122075.54     -1674079    76354.499   -1597724.5    5624329.2 
   15400         3.85    1328.0522    122917.71   -1673668.9    75942.705   -1597726.2    5619153.4 
   15500        3.875    1322.4385    123728.61     -1673353    75621.696   -1597731.3    5613977.6 
   15600          3.9    1314.5937     124593.6     -1672907      75173.1   -1597733.9    5608801.9 
   15700        3.925    1306.6973    125485.33     -1672455    74721.556   -1597733.4    5603626.1 
   15800         3.95    1298.6966    126440.19   -1671991.2     74264.05   -1597727.1    5598450.3 
   15900        3.975    1290.9523    127408.86   -1671543.2      73821.2     -1597722    5593274.5 
   16000            4    1282.3524    128413.76     -1671053    73329.429   -1597723.6    5588098.8 
   16100        4.025    1272.7893    129499.09   -1670513.1     72782.58   -1597730.5      5582923 
   16200         4.05    1263.6638    130626.05   -1669992.7    72260.751   -1597731.9    5577747.2 
   16300        4.075    1254.6498    131785.74   -1669475.3      71745.3     -1597730    5572571.4 
   16400          4.1    1245.4677    132991.39   -1668954.8    71220.232   -1597734.6    5567395.7 
   16500        4.125    1236.0713    134187.96     -1668422    70682.912   -1597739.1    5562219.9 
   16600         4.15    1225.7167    135467.15   -1667829.1      70090.8   -1597738.3    5557044.1 
   16700        4.175    1216.7912    136748.81   -1667324.2    69580.409   -1597743.8    5551868.3 
   16800          4.2    1206.2449    138087.06   -1666737.2    68977.333   -1597759.9    5546692.6 
   16900        4.225    1196.4638    139424.86   -1666185.1    68418.017   -1597767.1    5541516.8 
   17000         4.25    1186.8536    140832.75   -1665629.3    67868.471   -1597760.8      5536341 
   17100        4.275    1177.4001    142252.21   -1665081.7     67327.89   -1597753.8    5531165.2 
   17200          4.3     1168.619    143704.17   -1664574.7    66825.751   -1597748.9    5525989.5 
   17300        4.325    1158.7807    145233.72   -1664008.1    66263.166     -1597745    5520813.7 
   17400         4.35    1150.5025    146728.17     -1663531    65789.791   -1597741.3    5515637.9 
   17500        4.375    1142.6975    148229.12   -1663081.2    65343.471   -1597737.7    5510462.1 
   17600          4.4     1133.991    149757.11   -1662582.6    64845.602     -1597737    5505286.3 
   17700        4.425    1125.7612    151272.62   -1662117.9    64374.996   -1597742.9    5500110.6 
   17800         4.45    1117.1195    152794.46     -1661633    63880.829   -1597752.2    5494934.8 
   17900        4.475    1110.0537     154289.9   -1661232.8    63476.785     -1597756      5489759 
   18000          4.5     1102.289    155751.74   -1660783.5     63032.77   -1597750.7    5484583.2 
   18100        4.525    1094.9207    157183.76   -1660357.4    62611.426     -1597746    5479407.5 
   18200         4.55    1086.7855    158612.11   -1659892.1    62146.227   -1597745.9    5474231.7 
   18300        4.575    1080.1809    160044.69   -1659517.2    61768.551   -1597748.6    5469055.9 
   18400          4.6    1071.4997    161492.88   -1659023.7    61272.128   -1597751.5    5463880.1 
   18500        4.625    1064.0814     162969.3   -1658596.9    60847.923     -1597749    5458704.4 
   18600         4.65    1055.8655    164451.41   -1658118.5    60378.113   -1597740.4    5453528.6 
   18700        4.675    1049.2763    165884.45   -1657740.9    60001.319   -1597739.5    5448352.8 
   18800          4.7    1040.8493    167343.48   -1657264.8    59519.431   -1597745.4      5443177 
   18900        4.725    1033.1393    168860.74   -1656822.4    59078.545   -1597743.9    5438001.3 
   19000         4.75    1025.8728    170362.01   -1656401.3    58663.022   -1597738.3    5432825.5 
   19100        4.775    1019.0946     171837.2   -1656012.7     58275.42   -1597737.3    5427649.7 
   19200          4.8    1011.5754    173308.83   -1655579.6    57845.445   -1597734.1    5422473.9 
   19300        4.825    1005.1637    174764.85   -1655209.5    57478.805   -1597730.7    5417298.2 
   19400         4.85    996.37743    176234.79   -1654710.1    56976.374   -1597733.7    5412122.4 
   19500        4.875    988.96568    177703.67   -1654288.6    56552.543     -1597736    5406946.6 
   19600          4.9    980.95698    179208.84   -1653827.5    56094.578   -1597732.9    5401770.8 
   19700        4.925    973.04825    180676.37   -1653369.6    55642.329   -1597727.2    5396595.1 
   19800         4.95    964.59237    182102.12   -1652888.8    55158.791     -1597730    5391419.3 
   19900        4.975    957.46012    183487.29   -1652492.2    54750.944   -1597741.2    5386243.5 
   20000            5    947.75155    184883.88   -1651944.6    54195.775   -1597748.8    5381067.7 
   20100        5.025    941.26656    186209.35   -1651576.8     53824.94   -1597751.9      5375892 
   20200         5.05    933.71996    187505.09   -1651148.1    53393.398   -1597754.7    5370716.2 
   20300        5.075     926.9101    188741.68   -1650757.4    53003.987   -1597753.4    5365540.4 
   20400          5.1    920.04613    189950.63   -1650362.6    52611.481   -1597751.1    5360364.6 
   20500        5.125    914.01544    191139.04   -1650019.3    52266.625   -1597752.7    5355188.9 
   20600         5.15     908.3139    192317.87   -1649693.1    51940.591   -1597752.5    5350013.1 
   20700        5.175    902.31512    193461.43   -1649347.6    51597.559     -1597750    5344837.3 
   20800          5.2    897.02124    194560.19   -1649044.6    51294.836   -1597749.8    5339661.5 
   20900        5.225    890.93137    195605.51   -1648697.4    50946.596   -1597750.8    5334485.7 
   21000         5.25    887.00549    196554.62   -1648472.6      50722.1   -1597750.5      5329310 
   21100        5.275    881.86976    197511.16   -1648180.7    50428.421   -1597752.3    5324134.2 
   21200          5.3    877.54767    198403.58   -1647934.6    50181.269   -1597753.3    5318958.4 
   21300        5.325    872.75804     199333.7   -1647658.6    49907.381   -1597751.2    5313782.6 
   21400         5.35    867.95062    200229.52   -1647384.4    49632.476   -1597751.9    5308606.9 
   21500        5.375    864.68236    201158.51   -1647197.7    49445.585   -1597752.1    5303431.1 
   21600          5.4    860.66419    202097.23   -1646963.3    49215.812   -1597747.5    5298255.3 
   21700        5.425    855.55396    203074.42   -1646673.8    48923.591   -1597750.2    5293079.5 
   21800         5.45    851.23808    204036.33   -1646435.1    48676.794   -1597758.3    5287903.8 
   21900        5.475    847.97464     204984.2   -1646253.1    48490.179     -1597763      5282728 
   22000          5.5    842.81937    205929.27   -1645955.1    48195.382   -1597759.7    5277552.2 
   22100        5.525    838.65822    206898.39   -1645714.8    47957.433   -1597757.4    5272376.4 
   22200         5.55    833.34138    207844.12   -1645407.1    47653.398   -1597753.7    5267200.7 
   22300        5.575    828.60006    208801.37   -1645122.8    47382.272   -1597740.5    5262024.9 
   22400          5.6    822.47994    209826.39   -1644762.7    47032.302   -1597730.4    5256849.1 
   22500        5.625    816.62956    210833.68   -1644430.1    46697.757   -1597732.4    5251673.3 
   22600         5.65    809.71933    211842.45   -1644036.6    46302.605     -1597734    5246497.6 
   22700        5.675    802.86228    212813.53   -1643641.5    45910.495     -1597731    5241321.8 
   22800          5.7    795.38361    213772.03   -1643215.5    45482.838   -1597732.7      5236146 
   22900        5.725    789.09673    214725.48   -1642860.9    45123.332   -1597737.5    5230970.2 
   23000         5.75    780.43245    215652.46   -1642360.5    44627.879   -1597732.6    5225794.5 
   23100        5.775    774.14815    216576.41   -1641991.7     44268.52   -1597723.2    5220618.7 
   23200          5.8    766.56759    217555.37   -1641555.7    43835.037   -1597720.7    5215442.9 
   23300        5.825    759.33898    218531.13   -1641140.5    43421.679   -1597718.8    5210267.1 
   23400         5.85    752.60887    219527.14   -1640756.3    43036.828   -1597719.5    5205091.4 
   23500        5.875    745.18458     220586.4   -1640331.9    42612.281   -1597719.6    5199915.6 
   23600          5.9    738.40496    221688.42   -1639938.9    42224.598   -1597714.3    5194739.8 
   23700        5.925    730.67629    222856.61   -1639490.1    41782.646   -1597707.5      5189564 
   23800         5.95    723.65185    224047.26   -1639082.1    41380.963   -1597701.1    5184388.2 
   23900        5.975    717.55048    225266.95   -1638709.1    41032.066     -1597677    5179212.5 
   24000            6    710.23847    226542.22   -1638234.7    40613.939   -1597620.8    5174036.7 
   24100        6.025    701.95133    227843.39   -1637675.3    40140.051   -1597535.3    5168860.9 
   24200         6.05    698.18836    229079.79   -1637321.2    39924.871   -1597396.4    5163685.1 
   24300        6.075    692.37251    230376.17     -1636760    39592.301   -1597167.7    5158509.4 
   24400          6.1    690.00138    231666.21   -1636280.8    39456.711   -1596824.1    5153333.6 
   24500        6.125    687.02152    233037.36   -1635662.8    39286.312   -1596376.5    5148157.8 
   24600         6.15    687.36721    234383.95   -1635141.8     39306.08   -1595835.8      5142982 
   24700        6.175    685.42042    235778.78   -1634523.7    39194.755   -1595328.9    5137806.3 
   24800          6.2    685.95794     237134.5   -1633990.2    39225.493   -1594764.7    5132630.5 
   24900        6.225    684.87731    238477.22     -1633377    39163.698   -1594213.3    5127454.7 
   25000         6.25    684.24266    239850.55   -1632748.1    39127.407   -1593620.7    5122278.9 
   25100        6.275    685.50401    241332.22   -1632184.6    39199.535   -1592985.1    5117103.2 
   25200          6.3    686.81546    242934.38   -1631560.6    39274.529     -1592286    5111927.4 
   25300        6.325     689.0294    244571.89   -1630963.6     39401.13   -1591562.4    5106751.6 
   25400         6.35    689.88976    246261.05   -1630278.8    39450.328   -1590828.4    5101575.8 
   25500        6.375    690.66662    248017.66   -1629568.7    39494.752     -1590074    5096400.1 
   25600          6.4    692.84155    249792.44   -1628906.6    39619.122   -1589287.5    5091224.3 
   25700        6.425    695.52924    251582.67   -1628233.1    39772.814   -1588460.3    5086048.5 
   25800         6.45    697.76541    253438.58   -1627514.9    39900.686   -1587614.2    5080872.7 
   25900        6.475    699.78029    255334.37   -1626808.9    40015.904     -1586793      5075697 
   26000          6.5    702.13148    257158.26     -1626133    40150.353   -1585982.6    5070521.2 
   26100        6.525    705.66598    258976.58   -1625516.2    40352.468   -1585163.8    5065345.4 
   26200         6.55    708.48267    260869.89   -1624829.3    40513.536   -1584315.8    5060169.6 
   26300        6.575    712.96802    262775.16   -1624166.1    40770.025     -1583396    5054993.9 
   26400          6.6    718.79583    264707.87   -1623482.9    41103.279   -1582379.6    5049818.1 
   26500        6.625    724.53517    266624.69   -1622777.1    41431.475   -1581345.6    5044642.3 
   26600         6.65    731.62858    268525.04   -1622137.1    41837.101     -1580300    5039466.5 
   26700        6.675    735.92487    270413.72   -1621435.3    42082.778   -1579352.5    5034290.8 
   26800          6.7    739.34891    272231.65   -1620776.4    42278.577   -1578497.8      5029115 
   26900        6.725    740.92846     274082.7   -1620091.3    42368.901   -1577722.4    5023939.2 
   27000         6.75    741.86255    275943.25   -1619400.9    42422.315   -1576978.6    5018763.4 
   27100        6.775    742.42157    277804.77   -1618703.5    42454.282   -1576249.2    5013587.6 
   27200          6.8    741.88054    279661.59   -1617946.6    42423.344   -1575523.3    5008411.9 
   27300        6.825    740.79888    281506.46   -1617157.9    42361.491   -1574796.4    5003236.1 
   27400         6.85      739.368    283364.18     -1616354    42279.668   -1574074.3    4998060.3 
   27500        6.875    739.10169    285176.96   -1615606.4     42264.44   -1573341.9    4992884.5 
   27600          6.9     736.8788     287069.8   -1614722.9    42137.327   -1572585.5    4987708.8 
   27700        6.925    735.35128    289021.38   -1613812.2    42049.978   -1571762.3      4982533 
   27800         6.95    739.38634    291146.65   -1612906.8    42280.717     -1570626    4977357.2 
   27900        6.975    735.57023    293368.36   -1611875.1    42062.499   -1569812.6    4972181.4 
   28000            7    730.04111    295679.79   -1610779.5    41746.324   -1569033.2    4967005.7 
   28100        7.025    722.82699    298024.22   -1609652.2    41333.795   -1568318.4    4961829.9 
   28200         7.05    714.58775    300429.39   -1608478.5    40862.646   -1567615.8    4956654.1 
   28300        7.075    706.58175    302853.04   -1607278.5    40404.835   -1566873.6    4951478.3 
   28400          7.1     699.0713    305284.94   -1606117.9    39975.361   -1566142.5    4946302.6 
   28500        7.125      691.077    307727.12   -1604929.5    39518.219   -1565411.2    4941126.8 
   28600         7.15    682.69821    310183.71   -1603698.4     39039.09   -1564659.3      4935951 
   28700        7.175    675.67145    312576.24   -1602516.1    38637.275   -1563878.8    4930775.2 
   28800          7.2    670.45558    314910.97   -1601427.8    38339.013   -1563088.8    4925599.5 
   28900        7.225    664.84731    317179.39   -1600303.8    38018.312   -1562285.5    4920423.7 
   29000         7.25    663.06996    319374.74   -1599251.5    37916.678   -1561334.9    4915247.9 
   29100        7.275    667.42038    321692.86     -1598105     38165.45   -1559939.6    4910072.1 
   29200          7.3    674.85711    324026.43   -1597038.4    38590.708   -1558447.7    4904896.4 
   29300        7.325    676.80803    326398.32   -1595916.7    38702.269   -1557214.5    4899720.6 
   29400         7.35    673.84525    328935.67   -1594606.6    38532.846   -1556073.7    4894544.8 
   29500        7.375    669.64395    331592.51     -1593215    38292.601   -1554922.4      4889369 
   29600          7.4    664.38812    334390.43     -1591645    37992.055     -1553653    4884193.3 
   29700        7.425    663.88008    337387.11   -1590042.6    37963.003   -1552079.6    4879017.5 
   29800         7.45    668.92235    340570.56   -1588251.9    38251.338   -1550000.6    4873841.7 
   29900        7.475    681.84976       343793   -1586485.1    38990.573   -1547494.5    4868665.9 
   30000          7.5    697.25114    347058.02   -1584659.3    39871.278     -1544788    4863490.2 
   30100        7.525    710.76871    350302.81   -1582749.3     40644.26   -1542105.1    4858314.4 
   30200         7.55    722.79694    353535.65   -1580900.4    41332.077   -1539568.3    4853138.6 
   30300        7.575    738.84403     356797.1     -1579140    42249.706   -1536890.3    4847962.8 
   30400          7.6    755.85787     360166.3   -1577294.5    43222.617   -1534071.8      4842787 
   30500        7.625     776.1137    363586.12   -1575474.7    44380.917   -1531093.7    4837611.3 
   30600         7.65    797.72924    366941.92   -1573717.7     45616.97   -1528100.7    4832435.5 
   30700        7.675    819.65316    370252.56   -1571989.7    46870.657   -1525119.1    4827259.7 
   30800          7.7    842.02418    373545.85     -1570250     48149.91   -1522100.1    4822083.9 
   30900        7.725    862.94994    376886.37   -1568430.3    49346.519   -1519083.8    4816908.2 
   31000         7.75    883.55226       380263   -1566667.2    50524.633   -1516142.6    4811732.4 
   31100        7.775    901.99727    383579.65   -1564846.9    51579.383   -1513267.5    4806556.6 
   31200          7.8    919.65788    386929.44   -1562988.1    52589.279   -1510398.9    4801380.8 
   31300        7.825    936.71392    390223.05   -1561170.2    53564.604   -1507605.6    4796205.1 
   31400         7.85    953.47099    393439.36   -1559390.4    54522.832   -1504867.6    4791029.3 
   31500        7.875    967.38094    396697.46   -1557495.6    55318.252   -1502177.4    4785853.5 
   31600          7.9    983.56192    399828.42   -1555781.1    56243.537   -1499537.5    4780677.7 
   31700        7.925    1001.1487    402903.44   -1554156.8    57249.212   -1496907.6      4775502 
   31800         7.95    1017.0438    406000.99   -1552399.6     58158.15   -1494241.5    4770326.2 
   31900        7.975    1034.3865    409127.59   -1550685.6    59149.867   -1491535.7    4765150.4 
   32000            8    1053.3723    412256.06   -1549045.2    60235.543   -1488809.7    4759974.6 
   32100        8.025    1071.6738     415312.6     -1547349    61282.085   -1486066.9    4754798.9 
   32200         8.05    1093.7186    418201.28   -1545848.2    62542.684   -1483305.5    4749623.1 
   32300        8.075    1116.8345    420913.93   -1544398.9    63864.531   -1480534.4    4744447.3 
   32400          8.1    1139.7008    423777.02   -1542931.3    65172.108   -1477759.2    4739271.5 
   32500        8.125    1165.4494     426780.7   -1541608.3    66644.503   -1474963.8    4734095.8 
   32600         8.15    1189.8366    429758.26     -1540177     68039.05   -1472137.9      4728920 
   32700        8.175    1216.1542    432642.51   -1538847.1    69543.986   -1469303.1    4723744.2 
   32800          8.2    1242.7039    435522.42     -1537554     71062.19   -1466491.9    4718568.4 
   32900        8.225    1270.0286    438368.33   -1536327.4    72624.713   -1463702.7    4713392.7 
   33000         8.25    1296.1093    441286.71   -1535050.1    74116.096     -1460934    4708216.9 
   33100        8.275    1324.3268    444038.68   -1533967.2    75729.675   -1458237.6    4703041.1 
   33200          8.3    1350.4556    446799.28   -1532892.7    77223.811   -1455668.9    4697865.3 
   33300        8.325    1369.5528    449986.83   -1531505.7    78315.856   -1453189.9    4692689.6 
   33400         8.35    1393.5335    453478.83   -1530381.5    79687.158   -1450694.3    4687513.8 
   33500        8.375     1416.617    457031.53   -1529130.2    81007.153   -1448123.1      4682338 
   33600          8.4    1443.1567    460612.01   -1528005.4    82524.785   -1445480.7    4677162.2 
   33700        8.425    1474.4209    464111.35   -1527091.1    84312.586   -1442778.5    4671986.4 
   33800         8.45    1504.5986    467620.89   -1526073.7    86038.249   -1440035.4    4666810.7 
   33900        8.475     1535.329    470966.41     -1525102    87795.526   -1437306.4    4661634.9 
   34000          8.5    1566.4368    474352.09   -1524176.8    89574.377   -1434602.5    4656459.1 
   34100        8.525     1594.765    477833.46   -1523052.7    91194.283   -1431858.4    4651283.3 
   34200         8.55    1625.3634    481211.06   -1521959.7     92944.01   -1429015.7    4646107.6 
   34300        8.575    1656.8067    484636.21     -1520863    94742.048     -1426121    4640931.8 
   34400          8.6    1685.9038    488143.62   -1519706.2     96405.92   -1423300.3      4635756 
   34500        8.625    1712.6688    491657.39   -1518550.4    97936.438     -1420614    4630580.2 
   34600         8.65    1737.8317    495062.99     -1517352    99375.341   -1417976.7    4625404.5 
   34700        8.675    1761.4296    498544.49   -1516021.7    100724.75   -1415296.9    4620228.7 
   34800          8.7    1782.6732    502228.25   -1514574.4    101939.54   -1412634.9    4615052.9 
   34900        8.725    1803.2434    506213.39     -1513143    103115.81   -1410027.2    4609877.1 
   35000         8.75     1820.942    510333.08   -1511644.1    104127.88   -1407516.2    4604701.4 
   35100        8.775    1832.4819    514446.48   -1509975.9    104787.78   -1405188.1    4599525.6 
   35200          8.8    1843.8232    518413.87     -1508388    105436.31   -1402951.7    4594349.8 
   35300        8.825    1854.1015    522390.75   -1506711.6    106024.06   -1400687.6      4589174 
   35400         8.85     1866.933    526250.26   -1505129.4    106757.81   -1398371.6    4583998.3 
   35500        8.875    1880.1409    530144.45   -1503570.8    107513.09   -1396057.7    4578822.5 
   35600          8.9    1890.7157    533869.19     -1501932    108117.79   -1393814.2    4573646.7 
   35700        8.925    1903.8294    537358.61   -1500534.3    108867.67   -1391666.6    4568470.9 
   35800         8.95    1911.8545    540918.02   -1498880.1    109326.58   -1389553.5    4563295.2 
   35900        8.975    1919.6571    544512.62   -1497134.1    109772.76   -1387361.3    4558119.4 
   36000            9    1931.9127    548278.33   -1495546.6    110473.58     -1385073    4552943.6 
   36100        9.025    1942.2534    552195.09   -1493832.8    111064.89   -1382767.9    4547767.8 
   36200         9.05    1950.3118    555902.04   -1492017.6     111525.7   -1380491.9    4542592.1 
   36300        9.075    1963.2805    559429.17   -1490418.5     112267.3   -1378151.2    4537416.3 
   36400          9.1    1974.6106    562980.93   -1488572.5    112915.19   -1375657.3    4532240.5 
   36500        9.125    1991.1556    566625.75   -1486962.2     113861.3   -1373100.9    4527064.7 
   36600         9.15    2005.0612    570265.12   -1485333.5    114656.47     -1370677      4521889 
   36700        9.175    2013.9229    573841.92   -1483629.7    115163.21   -1368466.5    4516713.2 
   36800          9.2    2020.9949    577321.39   -1481978.3    115567.61   -1366410.7    4511537.4 
   36900        9.225    2026.4144    580688.96   -1480288.4    115877.52   -1364410.9    4506361.6 
   37000         9.25    2032.1795    584131.45   -1478657.9    116207.19   -1362450.7    4501185.8 
   37100        9.275    2036.7626    587548.34   -1477000.9    116469.26   -1360531.6    4496010.1 
   37200          9.3    2041.6594    590906.33   -1475394.1    116749.28   -1358644.8    4490834.3 
   37300        9.325     2042.228    594550.01   -1473543.5     116781.8   -1356761.7    4485658.5 
   37400         9.35     2044.954    598352.71   -1471821.4    116937.68   -1354883.7    4480482.7 
   37500        9.375    2050.8279    602028.62   -1470303.5    117273.57   -1353029.9      4475307 
   37600          9.4    2053.2259    605492.99   -1468607.5    117410.69   -1351196.8    4470131.2 
   37700        9.425    2059.0455    608916.72   -1467081.1    117743.48   -1349337.7    4464955.4 
   37800         9.45     2064.711     612417.2   -1465507.5    118067.45     -1347440    4459779.6 
   37900        9.475    2073.4176    615927.57   -1464145.7    118565.33   -1345580.4    4454603.9 
   38000          9.5    2078.3943    619381.98   -1462660.3    118849.91   -1343810.4    4449428.1 
   38100        9.525     2084.771    622585.36     -1461338    119214.55   -1342123.5    4444252.3 
   38200         9.55    2090.3918    625745.07   -1459969.1    119535.97   -1340433.1    4439076.5 
   38300        9.575    2094.4913    629017.96   -1458450.2    119770.39   -1338679.8    4433900.8 
   38400          9.6    2099.9807    632507.57   -1456947.4     120084.3   -1336863.1      4428725 
   38500        9.625     2106.241    636139.69   -1455504.4    120442.29   -1335062.1    4423549.2 
   38600         9.65    2113.7945    639706.56   -1454193.1    120874.22   -1333318.9    4418373.4 
   38700        9.675    2117.0225    643311.05   -1452661.3    121058.81   -1331602.5    4413197.7 
   38800          9.7     2125.896    646879.26   -1451415.4    121566.22   -1329849.2    4408021.9 
   38900        9.725    2135.1169    650402.69   -1450127.7    122093.51   -1328034.2    4402846.1 
   39000         9.75    2143.0566    653955.62   -1448729.4    122547.53   -1326181.8    4397670.3 
   39100        9.775    2152.6937    657498.02   -1447417.3    123098.61   -1324318.7    4392494.6 
   39200          9.8    2162.6696    661269.65   -1446080.1    123669.07     -1322411    4387318.8 
   39300        9.825    2174.7679    664952.87   -1444777.7    124360.89   -1320416.8      4382143 
   39400         9.85    2187.8092    668492.06     -1443469    125106.64   -1318362.4    4376967.2 
   39500        9.875    2199.7303    672008.12   -1442096.3    125788.33     -1316308    4371791.5 
   39600          9.9    2213.5384    675542.86   -1440833.6    126577.93   -1314255.7    4366615.7 
   39700        9.925    2228.8393    678963.59   -1439627.2    127452.89   -1312174.3    4361439.9 
   39800         9.95     2243.802    682382.04   -1438392.2    128308.51   -1310083.7    4356264.1 
   39900        9.975    2257.6128    685788.06   -1437089.3    129098.26   -1307991.1    4351088.4 
   40000           10    2273.0531    689448.43   -1435804.9    129981.19   -1305823.7    4345912.6 
   40100       10.025    2292.3174     693326.7   -1434617.1    131082.79   -1303534.3    4340736.8 
   40200        10.05    2309.3997    697269.71   -1433204.2    132059.62   -1301144.6      4335561 
   40300       10.075     2329.831    701197.12   -1431969.8    133227.95   -1298741.9    4330385.2 
   40400         10.1    2344.8063    705160.38   -1430429.8    134084.29   -1296345.5    4325209.5 
   40500       10.125    2360.0063    709148.27   -1428883.8    134953.48   -1293930.3    4320033.7 
   40600        10.15     2374.037    713301.11   -1427313.5     135755.8   -1291557.7    4314857.9 
   40700       10.175    2384.7535    717512.58     -1425615    136368.61   -1289246.4    4309682.1 
   40800         10.2     2394.116    721276.34   -1423992.7    136903.99   -1287088.7    4304506.4 
   40900       10.225    2406.2497    724788.28   -1422508.7    137597.84   -1284910.8    4299330.6 
   41000        10.25    2412.7394    728442.81   -1420647.3    137968.94   -1282678.3    4294154.8 
   41100       10.275    2409.4041     732693.6   -1418204.2    137778.22     -1280426      4288979 
   41200         10.3    2396.5703    736964.33     -1415211    137044.33   -1278166.7    4283803.3 
   41300       10.325    2389.1756    741607.04   -1412503.8    136621.48   -1275882.3    4278627.5 
   41400        10.35    2372.7632     746266.7   -1409216.8    135682.96   -1273533.8    4273451.7 
   41500       10.375    2363.8345    751220.32   -1406311.5    135172.39   -1271139.1    4268275.9 
   41600         10.4    2347.0077    755960.11   -1402923.3    134210.17   -1268713.1    4263100.2 
   41700       10.425    2333.1783    760855.19   -1399690.9    133419.36   -1266271.5    4257924.4 
   41800        10.45    2318.3883    765740.21   -1396371.1    132573.61   -1263797.5    4252748.6 
   41900       10.475     2302.722    770245.44   -1392973.9    131677.76   -1261296.1    4247572.8 
   42000         10.5    2285.5566    774782.53   -1389469.4    130696.18   -1258773.2    4242397.1 
   42100       10.525    2263.6343    779375.68   -1385652.5    129442.59   -1256209.9    4237221.3 
   42200        10.55     2246.267    784162.34   -1382071.3    128449.47   -1253621.8    4232045.5 
   42300       10.575    2221.3169    789087.48   -1378100.8    127022.73   -1251078.1    4226869.7 
   42400         10.6      2203.88    794264.76     -1374546    126025.63   -1248520.4      4221694 
   42500       10.625    2183.9808    799136.71   -1370900.6    124887.72   -1246012.9    4216518.2 
   42600        10.65    2166.2024    803625.44   -1367296.9    123871.09   -1243425.8    4211342.4 
   42700       10.675    2146.1588    807964.25   -1363544.9    122724.92     -1240820    4206166.6 
   42800         10.7    2127.1087     812139.7   -1359821.9    121635.57   -1238186.4    4200990.9 
   42900       10.725    2105.6844    815782.75   -1356069.8    120410.46   -1235659.4    4195815.1 
   43000        10.75    2087.2316    819096.93   -1352507.4    119355.26   -1233152.1    4190639.3 
   43100       10.775    2063.0727    822118.01   -1348589.1    117973.77   -1230615.4    4185463.5 
   43200         10.8    2043.5314    825434.56   -1344897.2    116856.33   -1228040.9    4180287.8 
   43300       10.825    2019.3838    829117.98   -1340981.8    115475.49   -1225506.3      4175112 
   43400        10.85    1999.2867    833262.33   -1337319.5    114326.26   -1222993.2    4169936.2 
   43500       10.875    1978.5697    837769.74     -1333665    113141.59   -1220523.4    4164760.4 
   43600         10.9    1957.2463    842060.36     -1329964    111922.24   -1218041.8    4159584.6 
   43700       10.925    1939.9221    846254.87   -1326419.2    110931.58   -1215487.6    4154408.9 
   43800        10.95    1923.3514    850340.47     -1322898    109984.01     -1212914    4149233.1 
   43900       10.975    1909.4517    853907.27     -1319567    109189.18   -1210377.8    4144057.3 
   44000           11    1894.0104    857615.41   -1316185.8    108306.19   -1207879.6    4138881.5 
   44100       11.025    1878.5717    861600.58   -1312876.6    107423.35   -1205453.2    4133705.8 
   44200        11.05    1863.9298    865723.59   -1309641.6    106586.08   -1203055.6      4128530 
   44300       11.075    1852.2041       870416   -1306628.6    105915.56     -1200713    4123354.2 
   44400         11.1    1839.3717    875463.72   -1303559.7    105181.76     -1198378    4118178.4 
   44500       11.125    1832.0136    880632.76   -1300757.6       104761   -1195996.6    4113002.7 
   44600        11.15    1826.5831    885987.16   -1298010.8    104450.46   -1193560.3    4107826.9 
   44700       11.175    1819.5708    891248.32   -1295178.7    104049.47   -1191129.2    4102651.1 
   44800         11.2     1815.889    896729.95   -1292544.3    103838.93   -1188705.4    4097475.3 
   44900       11.225    1812.2891    902442.66   -1289952.1    103633.08     -1186319    4092299.6 
   45000        11.25    1809.5229    908157.88   -1287420.8     103474.9   -1183945.9    4087123.8 
   45100       11.275    1806.3445    913602.93   -1284861.1    103293.15   -1181567.9      4081948 
   45200         11.3    1802.8512    919306.06   -1282314.6    103093.39   -1179221.2    4076772.2 
   45300       11.325    1796.6616    925389.18   -1279604.5    102739.44   -1176865.1    4071596.5 
   45400        11.35      1787.07    931865.34     -1276701    102190.96     -1174510    4066420.7 
   45500       11.375    1780.9133    938640.99   -1274031.2     101838.9   -1172192.3    4061244.9 
   45600         11.4    1772.9688    944922.61   -1271347.9    101384.61   -1169963.3    4056069.1 
   45700       11.425    1765.5461    950995.07   -1268653.5    100960.15   -1167693.4    4050893.4 
   45800        11.45    1756.5763    956807.56   -1265902.1    100447.22   -1165454.9    4045717.6 
   45900       11.475    1746.1397    962349.82   -1263095.7    99850.424   -1163245.2    4040541.8 
   46000         11.5    1737.9302    967524.86   -1260412.6    99380.974   -1161031.7      4035366 
   46100       11.525    1724.8266    972293.38   -1257442.8    98631.663   -1158811.2    4030190.3 
   46200        11.55    1712.7243    976787.25   -1254588.6     97939.61     -1156649    4025014.5 
   46300       11.575    1698.2793    981413.79   -1251638.6    97113.598     -1154525    4019838.7 
   46400         11.6    1682.4663    985915.39   -1248579.7    96209.356   -1152370.4    4014662.9 
   46500       11.625    1667.4733    990136.96   -1245522.4    95351.998   -1150170.4    4009487.2 
   46600        11.65    1650.2686     994311.1   -1242310.6    94368.178   -1147942.5    4004311.4 
   46700       11.675    1632.7295    998389.42   -1239058.2    93365.225     -1145693    3999135.6 
   46800         11.7    1614.4454    1002183.1   -1235714.9    92319.677   -1143395.2    3993959.8 
   46900       11.725    1599.9162    1005317.6     -1232539     91488.85   -1141050.1      3988784 
   47000        11.75    1582.3707    1008231.6   -1229164.8    90485.537   -1138679.3    3983608.3 
   47100       11.775    1564.2528    1011176.5   -1225721.1    89449.489   -1136271.6    3978432.5 
   47200         11.8    1544.0153    1014483.5   -1222081.7    88292.236   -1133789.4    3973256.7 
   47300       11.825    1528.5861    1018198.5   -1218694.7    87409.938   -1131284.7    3968080.9 
   47400        11.85      1510.83    1022540.6   -1215232.2    86394.586   -1128837.6    3962905.2 
   47500       11.875    1489.8566    1027141.2   -1211656.3     85195.25   -1126461.1    3957729.4 
   47600         11.9    1469.8416    1031722.8   -1208146.5    84050.722   -1124095.8    3952553.6 
   47700       11.925    1450.8174    1036289.2   -1204710.6    82962.854   -1121747.8    3947377.8 
   47800        11.95    1427.1221    1041086.4   -1201066.1    81607.871   -1119458.2    3942202.1 
   47900       11.975    1407.4263    1046347.6   -1197676.7    80481.598   -1117195.1    3937026.3 
   48000           12    1386.1323    1051701.3     -1194169     79263.93   -1114905.1    3931850.5 
   48100       12.025    1364.0954    1057148.7   -1190590.3     78003.78   -1112586.5    3926674.7 
   48200        12.05    1342.8219    1062507.6   -1187092.9    76787.292   -1110305.6      3921499 
   48300       12.075    1318.1509    1068109.1   -1183477.4    75376.513   -1108100.9    3916323.2 
   48400         12.1    1295.6777    1073914.4   -1180013.3    74091.415   -1105921.8    3911147.4 
   48500       12.125    1271.1631    1079829.4   -1176444.6    72689.584     -1103755    3905971.6 
   48600        12.15    1246.5421    1085681.6   -1172873.8    71281.669   -1101592.2    3900795.9 
   48700       12.175    1223.2235    1091250.1     -1169386    69948.229   -1099437.8    3895620.1 
   48800         12.2     1203.848    1096534.1   -1166136.6    68840.271   -1097296.3    3890444.3 
   48900       12.225    1181.3586    1101691.2   -1162702.4     67554.25   -1095148.2    3885268.5 
   49000        12.25    1158.0786    1106629.6   -1159244.4    66223.016   -1093021.4    3880092.8 
   49100       12.275    1139.4275    1111545.4   -1156119.7     65156.48   -1090963.3      3874917 
   49200         12.3    1119.6543    1116166.5   -1152839.4     64025.78   -1088813.7    3869741.2 
   49300       12.325    1103.2038      1120989   -1149725.4     63085.08   -1086640.3    3864565.4 
   49400        12.35    1086.6139    1125885.6   -1146568.1    62136.413   -1084431.6    3859389.7 
   49500       12.375    1075.2289    1130864.7   -1143558.6    61485.376   -1082073.2    3854213.9 
   49600         12.4    1072.5894    1135954.3     -1140569    61334.443   -1079234.6    3849038.1 
   49700       12.425    1084.3822    1141297.6   -1137567.9    62008.795   -1075559.1    3843862.3 
   49800        12.45    1101.2955    1146721.9   -1134377.3    62975.956   -1071401.3    3838686.6 
   49900       12.475    1109.2455    1151989.9   -1131208.7     63430.57   -1067778.2    3833510.8 
   50000         12.5    1110.7824    1157183.7   -1128126.1    63518.456   -1064607.6      3828335 
Loop time of 404.08 on 24 procs for 50000 steps with 442392 atoms

Performance: 2.673 ns/day, 8.980 hours/ns, 123.738 timesteps/s
99.8% CPU use with 24 MPI tasks x 1 OpenMP threads

MPI task timing breakdown:
Section |  min time  |  avg time  |  max time  |%varavg| %total
---------------------------------------------------------------
Pair    | 178.14     | 187.42     | 205.54     |  54.9 | 46.38
Neigh   | 0.063124   | 0.079778   | 0.092567   |   3.1 |  0.02
Comm    | 33.671     | 39.901     | 49.536     |  81.4 |  9.87
Output  | 15.164     | 15.165     | 15.178     |   0.1 |  3.75
Modify  | 126.37     | 140.72     | 150.71     |  55.8 | 34.83
Other   |            | 20.8       |            |       |  5.15

Nlocal:        18433.0 ave       20507 max       16347 min
Histogram: 4 0 1 4 1 3 5 3 1 2
Nghost:        25071.7 ave       26849 max       21883 min
Histogram: 2 0 0 1 4 4 1 3 4 5
Neighs:         0.00000 ave           0 max           0 min
Histogram: 24 0 0 0 0 0 0 0 0 0

Total # of neighbors = 0
Ave neighs/atom = 0.0000000
Neighbor list builds = 459
Dangerous builds = 0


---------------------------------------------------------------------
      Device Time Info (average): 
---------------------------------------------------------------------
Data Transfer:   20.0415 s.
Neighbor copy:   0.0182 s.
Neighbor build:  1.2329 s.
Force calc:      113.9984 s.
Device Overhead: 67.4692 s.
Average split:   1.0000.
Lanes / atom:    4.
Vector width:    32.
Max Mem / Proc:  85.20 MB.
CPU Neighbor:    0.2729 s.
CPU Cast/Pack:   19.3056 s.
CPU Driver_Time: 0.9353 s.
CPU Idle_Time:   56.7931 s.
---------------------------------------------------------------------

Total wall time: 0:06:53
