LAMMPS (31 Aug 2021)
OMP_NUM_THREADS environment is not set. Defaulting to 1 thread. (src/comm.cpp:98)
  using 1 OpenMP thread(s) per MPI task

# System init

units      metal
dimension  3
boundary   p p p
atom_style atomic
timestep   0.00025


# read data
read_data NiO_small.data
Reading data file ...
  orthogonal box = (0.0000000 0.0000000 0.0000000) to (104.43967 104.43967 59.080000)
  2 by 2 by 1 MPI processor grid
  reading atoms ...
  68600 atoms
  read_data CPU = 0.297 seconds

# pair potential

pair_style hybrid/overlay eam/alloy edip/multi
pair_coeff * * eam/alloy Mishin-Ni-Al-2009.eam.alloy Ni NULL
pair_coeff * * edip/multi NiAlO.edip Ni O

mass 2 15.999


# reporting
thermo_style custom step time temp pe epair etotal press vol lx ly lz spcpu cpuremain elapsed
thermo 100

dump   1 all atom 100 generic.lammpstrj

# Single point
min_style cg
minimize 1e-5 1e-5 10000 100000

CITE-CITE-CITE-CITE-CITE-CITE-CITE-CITE-CITE-CITE-CITE-CITE-CITE

Your simulation uses code contributions which should be cited:

- @article{cjiang2012
 author    = {Jian, Chao and Morgan, Dane, and Szlufarska, Izabella},
 title     = {Carbon tri-interstitial defect: A model for DII center},
 journal   = {Physical Review B},
 volume    = {86},
 pages     = {144118},
 year      = {2012},
}

@article{lpizzagalli2010,
 author    = {G. Lucas, M. Bertolus, and L. Pizzagalli},
 journal   = {J. Phys. : Condens. Matter 22},
 volume    = {22},
 pages     = {035802},
 year      = {2010},
}

CITE-CITE-CITE-CITE-CITE-CITE-CITE-CITE-CITE-CITE-CITE-CITE-CITE

WARNING: Using 'neigh_modify every 1 delay 0 check yes' setting during minimization (src/min.cpp:188)
Neighbor list info ...
  update every 1 steps, delay 0 steps, check yes
  max neighbors/atom: 2000, page size: 100000
  master list distance cutoff = 8.28721
  ghost atom cutoff = 8.28721
  binsize = 4.143605, bins = 26 26 15
  3 neighbor lists, perpetual/occasional/extra = 3 0 0
  (1) pair eam/alloy, perpetual, skip from (3)
      attributes: half, newton on
      pair build: skip
      stencil: none
      bin: none
  (2) pair edip/multi, perpetual
      attributes: full, newton on
      pair build: full/bin/atomonly
      stencil: full/bin/3d
      bin: standard
  (3) neighbor class addition, perpetual, half/full from (2)
      attributes: half, newton on
      pair build: halffull/newton
      stencil: none
      bin: none
Per MPI rank memory allocation (min/avg/max) = 29.71 | 30.75 | 31.64 Mbytes
Step Time Temp PotEng E_pair TotEng Press Volume Lx Ly Lz S/CPU CPULeft Elapsed 
       0            0            0   -354209.88   -354209.88   -354209.88    21076.951    644423.67    104.43967    104.43967        59.08            0            0        0 
       1      0.00025            0   -354209.88   -354209.88   -354209.88    21076.951    644423.67    104.43967    104.43967        59.08    1.4128635    7077.1256        1 
Loop time of 0.707641 on 4 procs for 1 steps with 68600 atoms

89.2% CPU use with 4 MPI tasks x 1 OpenMP threads

Minimization stats:
  Stopping criterion = energy tolerance
  Energy initial, next-to-last, final = 
     -354209.881105643  -354209.881105643  -354209.881105653
  Force two-norm initial, final = 4.4164631e-11 1.5914195e-09
  Force max component initial, final = 4.3876014e-13 1.5188151e-11
  Final line search alpha, max atom move = 1.0000000 1.5188151e-11
  Iterations, force evaluations = 1 1

MPI task timing breakdown:
Section |  min time  |  avg time  |  max time  |%varavg| %total
---------------------------------------------------------------
Pair    | 0.59196    | 0.63365    | 0.66962    |   3.5 | 89.54
Neigh   | 0          | 0          | 0          |   0.0 |  0.00
Comm    | 0.0028235  | 0.038819   | 0.080513   |  14.3 |  5.49
Output  | 0          | 0          | 0          |   0.0 |  0.00
Modify  | 0          | 0          | 0          |   0.0 |  0.00
Other   |            | 0.03517    |            |       |  4.97

Nlocal:        17150.0 ave       18144 max       16184 min
Histogram: 1 0 0 0 2 0 0 0 0 1
Nghost:        19880.0 ave       20846 max       18886 min
Histogram: 1 0 0 0 0 2 0 0 0 1
Neighs:         0.00000 ave           0 max           0 min
Histogram: 4 0 0 0 0 0 0 0 0 0
FullNghs:  2.16090e+06 ave 2.28614e+06 max 2.03918e+06 min
Histogram: 1 0 0 0 2 0 0 0 0 1

Total # of neighbors = 8643600
Ave neighs/atom = 126.00000
Neighbor list builds = 0
Dangerous builds = 0

# Thermalisation

velocity all create 300 1 mom yes rot no

fix 1 all npt temp 300 300 $(100.0*dt) iso 1.0 1.0 $(1000*dt)
fix 1 all npt temp 300 300 0.025000000000000001388 iso 1.0 1.0 $(1000*dt)
fix 1 all npt temp 300 300 0.025000000000000001388 iso 1.0 1.0 0.25

run  10000
Per MPI rank memory allocation (min/avg/max) = 26.33 | 27.38 | 28.26 Mbytes
Step Time Temp PotEng E_pair TotEng Press Volume Lx Ly Lz S/CPU CPULeft Elapsed 
       1            0          300   -354209.88   -354209.88   -351549.75    25486.064    644423.67    104.43967    104.43967        59.08            0            0        0 
     100      0.02475     3402.227   -387549.46   -387549.46   -357381.52    310238.29    674714.26    106.05105    106.05105    59.991532    3.2099181    3084.5025       99 
     200      0.04975    3036.3601    -415899.9    -415899.9   -388976.14    16269.417    672166.95    105.91742    105.91742     59.91594     3.654661    2866.6314      199 
     300      0.07475    2229.6222   -431077.39   -431077.39   -411307.07   -64153.723    653665.05    104.93654    104.93654    59.361074    3.3987118    2843.0465      299 
     400      0.09975    1718.0603    -443267.9    -443267.9   -428033.66    -54503.73    630406.69    103.67689    103.67689    58.648503    3.1553969    2871.1291      399 
     500      0.12475      1340.07   -451867.63   -451867.63   -439985.07   -27762.477    614882.14    102.81874    102.81874    58.163065    2.8060839    2950.3695      499 
     600      0.14975    1035.6263   -457591.26   -457591.26   -448408.24   -13450.196    604698.53    102.24796    102.24796    57.840179    2.0024789    3215.7044      599 
     700      0.17475     803.3391   -461399.45   -461399.45   -454276.15   -7231.4766    598137.67    101.87682    101.87682    57.630233    1.7451861    3488.7973      699 
     800      0.19975    643.08947   -464095.88   -464095.88   -458393.53   -5505.2479    593575.42    101.61714    101.61714    57.483336    2.1560222    3553.4518      799 
     900      0.22475    526.04078   -465982.61   -465982.61   -461318.15   -2065.5327    590189.99    101.42358    101.42358    57.373843    2.6550352    3505.1536      899 
    1000      0.24975    439.58052   -467326.43   -467326.43   -463428.62     -1568.62       587682    101.27971    101.27971    57.292458    2.6105568    3464.7661      999 
    1100      0.27475    381.92221   -468351.32   -468351.32   -464964.77    -2391.946     585672.2    101.16413    101.16413    57.227073     2.596996    3426.3775     1099 
    1200      0.29975    337.78203   -469087.39   -469087.39   -466092.24   -630.22893    584189.52    101.07869    101.07869     57.17874    2.1511797    3446.5455     1199 
    1300      0.32475    309.40733   -469635.51   -469635.51   -466891.96   -1036.4385    582919.97    101.00541    101.00541     57.13729    2.4849829    3414.6246     1299 
    1400      0.34975    295.11592   -470049.65   -470049.65   -467432.82   -1460.2428    581912.09    100.94717    100.94717    57.104341    2.3325988    3397.6767     1399 
    1500      0.37475     289.4263   -470322.71   -470322.71   -467756.34   -58.922434    580911.68    100.88928    100.88928    57.071597    2.0478793    3411.0721     1499 
    1600      0.39975    293.00308   -470491.13   -470491.13   -467893.04   -1293.3291    580140.27    100.84461    100.84461    57.046324    2.4477809    3374.7703     1599 
    1700      0.42475    299.80382   -470581.41   -470581.41   -467923.02   -590.09817    579470.39    100.80578    100.80578    57.024359    2.4318688    3339.2387     1699 
    1800      0.44975    306.60225   -470677.55   -470677.55   -467958.87    1473.3373    578808.13    100.76736    100.76736    57.002627    2.4355121    3302.8054     1799 
    1900      0.47475     305.8104   -470813.97   -470813.97   -468102.31   -286.45332    578308.38    100.73835    100.73835    56.986216     2.372262    3270.5549     1899 
    2000      0.49975     299.4152    -470990.5    -470990.5   -468335.55    695.50514       577710    100.70359    100.70359    56.966555    1.7275757    3300.2759     1999 
    2100      0.52475    294.85984   -471162.38   -471162.38   -468547.82   -503.10288    577191.95    100.67348    100.67348    56.949522    1.8495503    3307.2802     2099 
    2200      0.54975    295.81641    -471293.3    -471293.3   -468670.27    416.30667    576662.43    100.64269    100.64269    56.932101    2.4382206    3262.4218     2199 
    2300      0.57475    299.12134   -471374.09   -471374.09   -468721.74   -1692.2155    576276.85    100.62025    100.62025    56.919409    2.5120073    3213.8624     2299 
    2400      0.59975    302.66803   -471442.74   -471442.74   -468758.94    -508.4972    575977.06     100.6028     100.6028    56.909537     2.566104    3163.3735     2399 
    2500      0.62475    302.84861   -471518.63   -471518.63   -468833.24   -884.83761     575566.9    100.57891    100.57891    56.896026     2.558426    3114.1577     2499 
    2600      0.64975    300.23369   -471616.51   -471616.51    -468954.3    1648.0822    575039.66    100.54819    100.54819    56.878647    2.5625927    3065.5403     2599 
    2700      0.67475    297.11072   -471718.78   -471718.78   -469084.26   -885.61749     574742.4    100.53086    100.53086    56.868845    2.5536147     3018.005     2699 
    2800      0.69975    298.50067    -471822.1    -471822.1   -469175.26   -27.950166    574322.13    100.50635    100.50635     56.85498    2.5151639    2972.6083     2799 
    2900      0.72475    299.24166   -471885.77   -471885.77   -469232.36   -1033.2382    574124.39    100.49482    100.49482    56.848454    2.5026502    2928.0875     2899 
    3000      0.74975    300.71982   -471943.48   -471943.48   -469276.96    1479.3529    573730.39    100.47182    100.47182    56.835447    2.5010947    2883.9291     2999 
    3100      0.77475    301.35061   -472007.08   -472007.08   -469334.97   -1693.7567    573525.87    100.45988    100.45988    56.828693    2.5137763     2839.591     3099 
    3200      0.79975    300.29011   -472083.99   -472083.99   -469421.28    624.37374    573184.31    100.43994    100.43994    56.817409    1.7907698    2829.6833     3199 
    3300      0.82475    299.73711   -472175.01   -472175.01   -469517.21   -513.56199    572942.23     100.4258     100.4258    56.809409     1.631842    2828.0378     3299 
    3400      0.84975    297.16867   -472232.28   -472232.28   -469597.25    702.87401    572649.61     100.4087     100.4087    56.799736    1.9198871    2805.0282     3399 
    3500      0.87475    297.98981   -472282.01   -472282.01    -469639.7   -587.36408    572423.48    100.39548    100.39548    56.792258    2.1139226    2771.4736     3499 
    3600      0.89975     301.0866   -472331.12   -472331.12   -469661.35    779.50559    572230.63     100.3842     100.3842     56.78588    2.0472621    2739.8944     3599 
    3700      0.92475    301.80315   -472373.26   -472373.26   -469697.13    1085.5886     571999.8     100.3707     100.3707    56.778243    2.1270381     2704.261     3699 
    3800      0.94975    301.19291   -472429.34   -472429.34   -469758.63   -1382.1446    571766.93    100.35708    100.35708    56.770537    2.3002296    2662.2505     3799 
    3900      0.97475    298.55527   -472484.27   -472484.27   -469836.94   -1.5857078    571505.81     100.3418     100.3418    56.761894    2.1580726     2624.646     3899 
    4000      0.99975    297.88688   -472544.91   -472544.91   -469903.51    749.07381     571288.6    100.32909    100.32909    56.754702    1.9875836    2592.5692     3999 
    4100      1.02475    299.66366   -472601.35   -472601.35    -469944.2    1168.9417    571160.02    100.32156    100.32156    56.750443    2.4241744    2546.5581     4099 
    4200      1.04975    299.17719   -472627.58   -472627.58   -469974.74   -1488.3952    571142.75    100.32055    100.32055    56.749872    2.1298447    2508.6491     4199 
    4300      1.07475    298.77784   -472649.12   -472649.12   -469999.83   -1649.0727    571010.28    100.31279    100.31279    56.745484    2.0640822    2472.3033     4299 
    4400      1.09975    300.47646   -472687.27   -472687.27   -470022.91     386.4444    570857.18    100.30382    100.30382    56.740411     2.029508    2436.4581     4399 
    4500      1.12475    301.25454   -472723.63   -472723.63   -470052.37   -492.67558    570656.68    100.29208    100.29208    56.733768    2.1363477    2397.0029     4499 
    4600      1.14975    301.40821   -472766.77   -472766.77   -470094.14    660.48051    570444.71    100.27966    100.27966    56.726742    2.1009004    2358.1555     4599 
    4700      1.17475    297.86261   -472787.99   -472787.99   -470146.81    1101.7187    570248.26    100.26815    100.26815     56.72023     1.800794    2327.8843     4699 
    4800      1.19975    299.58183   -472839.45   -472839.45   -470183.02     1204.959    570093.96     100.2591     100.2591    56.715114    2.2290252    2284.9983     4799 
    4900      1.22475    300.99291   -472893.62   -472893.62   -470224.68   -3340.1489    570090.92    100.25893    100.25893    56.715013    1.7298045    2255.5128     4899 
    5000      1.24975    299.49171   -472915.64   -472915.64   -470260.01    119.97832    569906.99    100.24814    100.24814    56.708913     2.051525    2215.8247     4999 
    5100      1.27475    300.69636   -472943.12   -472943.12   -470276.81    197.12897    569792.52    100.24143    100.24143    56.705116    2.2769544    2171.1429     5099 
    5200      1.29975    301.03456   -472969.31   -472969.31      -470300   -942.30676     569617.3    100.23115    100.23115    56.699303    1.6742837    2141.0889     5199 
    5300      1.32475    299.40878   -472996.39   -472996.39    -470341.5    809.02446    569489.44    100.22365    100.22365     56.69506    1.5839744     2112.936     5299 
    5400      1.34975    299.90247   -473046.66   -473046.66   -470387.39    -128.2036    569439.46    100.22072    100.22072    56.693401    1.7990277    2077.0561     5399 
    5500      1.37475    298.94321   -473083.66   -473083.66   -470432.89     327.4159    569254.81    100.20989    100.20989    56.687273    1.7883663    2040.7306     5499 
    5600      1.39975    300.56584   -473127.19   -473127.19   -470462.04   -1523.3792    569115.94    100.20174    100.20174    56.682663    2.1168649    1996.8847     5599 
    5700      1.42475    298.74581   -473128.91   -473128.91   -470479.89    824.15037    568887.01     100.1883     100.1883    56.675061    1.7343881    1960.7818     5699 
    5800      1.44975    301.14776   -473156.19   -473156.19   -470485.88    456.52531    568866.07    100.18707    100.18707    56.674366    1.9368583    1919.5692     5799 
    5900      1.47475    302.20304   -473188.35   -473188.35   -470508.68    1169.9645    568770.28    100.18145    100.18145    56.671185      1.76923    1881.4041     5899 
    6000      1.49975    299.35405   -473201.65   -473201.65   -470547.24   -1013.1187    568684.25     100.1764     100.1764    56.668327    1.3769445    1853.3667     5999 
    6100      1.52475    299.99743    -473244.6    -473244.6   -470584.48    912.98607    568630.92    100.17326    100.17326    56.666556    1.7331066    1814.3212     6099 
    6200      1.54975    301.31493   -473292.74   -473292.74   -470620.95   -2543.1828    568607.36    100.17188    100.17188    56.665773    2.2339491    1766.7419     6199 
    6300      1.57475    300.61869   -473327.07   -473327.07   -470661.45    1787.0321    568446.94    100.16246    100.16246    56.660444     2.164262    1720.0988     6299 
    6400      1.59975    299.15234   -473340.53   -473340.53   -470687.91    1726.3893    568299.09    100.15377    100.15377    56.655531    2.2684434    1672.2753     6399 
    6500      1.62475    299.00924   -473350.82   -473350.82   -470699.47    1632.7192    568252.11    100.15102    100.15102     56.65397    2.2361513    1624.9098     6499 
    6600      1.64975    301.17184   -473371.22   -473371.22   -470700.69    1202.4848    568133.42    100.14404    100.14404    56.650025    2.2410802    1577.5738     6599 
    6700      1.67475    299.79204   -473369.31   -473369.31   -470711.02   -1375.8211    568063.64    100.13994    100.13994    