LAMMPS data file via write_data, version 24 Mar 2022, timestep = 2140

26460 atoms
2 atom types

-0.5317941130426647 101.43738130874246 xlo xhi
-0.5317941130426647 101.43738130874246 ylo yhi
-0.1382509487916348 26.370758654391615 zlo zhi

Masses

1 26.982
2 15.999

Atoms # atomic

3 1 0.8002925634397318 2.5021180568671126 0.30122909305272394 0 0 0
5 1 0.8750052252569067 2.307495174376114 3.5739189409347714 0 0 0
7 1 3.0896749124503016 1.315420945787429 2.295155916401021 0 0 0
19 2 2.597937279926228 3.024011075450174 3.0492028983898973 0 0 0
23 2 2.1368025907062433 1.3962851333501254 0.7636236325741719 0 0 0
1277 2 3.3412325042113067 -0.3755541504392495 2.7481030954807837 0 0 0
1 1 -0.3334089715706129 -0.49732780820786426 1.7536386075493997 0 0 0
15 2 3.7229315920455583 0.2764076925151324 0.8965535810004459 0 0 0
21 2 3.963235098243577 2.315939340493579 0.8906909187715508 0 0 0
1263 1 5.647111403381165 2.6947466426093305 0.1091988411854013 0 0 0
1265 1 5.613488783996395 2.1804409549715458 3.7898609012554823 0 0 0
1279 2 7.204854935606898 2.9061135700586083 3.3162580328512434 0 0 0
1283 2 7.0136857473025485 1.787553740825885 0.8809074732392332 0 0 0
1267 1 7.916820544410578 1.5252979318179247 2.376232353310971 0 0 0
1275 2 8.069469198008466 0.18712774721073167 1.1509864192235255 0 0 0
1281 2 8.889698054301466 2.4746904788243436 0.9806829807390676 0 0 0
2525 1 10.332858307012321 2.052265593284651 3.8031275905677187 0 0 0
2537 2 7.978378292949126 -0.2250576835200434 3.080825882962819 0 0 0
2543 2 11.589969630699406 1.5530952066180546 0.7654217175622643 0 0 0
2539 2 12.044413470131413 2.6284311538619125 3.4659017326901957 0 0 0
2527 1 12.474632673253588 1.3175820367277284 2.3184744488862217 0 0 0
2535 2 12.592591822968327 -0.060892000446711836 1.0974615962689866 0 0 0
2541 2 13.523827996375257 2.3688077411320823 0.9864637187271681 0 0 0
3783 1 15.162584825513418 2.636129069867346 0.03339775395879041 0 0 0
3785 1 15.275266423994642 2.190914766222662 3.8065021672412485 0 0 0
3797 2 12.713608957148464 -0.3368453953559376 3.058768301625037 0 0 0
3803 2 16.426932419215575 1.7361989140325909 0.9270085711845482 0 0 0
3787 1 17.389027767288457 1.5241336526150224 2.441527044690419 0 0 0
3795 2 17.310444331083634 0.06860146223038488 1.428997807544092 0 0 0
3799 2 16.92470220589065 3.098672995310224 3.2315908853762907 0 0 0
3801 2 18.307629497617167 2.447242954369273 0.9829636744317347 0 0 0
5043 1 19.944513387790547 2.733727409981434 0.07335279236458692 0 0 0
5045 1 20.02170673409176 2.3115937112020926 3.7649837521715814 0 0 0
5057 2 17.63385592766972 -0.032537101813987834 3.359173573539112 0 0 0
3814 1 17.77525231348421 1.0180178689299144 -0.08380212177406751 0 0 1
5063 2 21.215903722786695 1.7817680615594966 0.8698376580921718 0 0 0
5047 1 22.277930004941112 1.5993288535774988 2.3473703471710534 0 0 0
5055 2 22.179951180302243 0.14138943897831158 1.346530537678254 0 0 0
5059 2 21.633801531318323 3.0056210446621514 3.333695328579589 0 0 0
5061 2 23.157415160234972 2.441735045783043 0.9449480840849858 0 0 0
6317 2 22.558562722192484 0.07747551062511615 3.259953700262561 0 0 0
6303 1 24.77277748940539 2.2868901514352067 0.0661396169681821 0 0 0
6305 1 24.932854468068484 2.1153938341820515 3.808920285888225 0 0 0
6307 1 27.220324912899564 1.7327345516547128 2.413704586921757 0 0 0
6315 2 27.14177616614907 0.34386561609291577 1.2687526388667563 0 0 0
6319 2 26.37282228627991 3.1228013060793303 3.3757519424901967 0 0 0
6321 2 28.184258674552286 2.8179500476042882 0.9801473655980273 0 0 0
6323 2 26.33324285561192 2.0796601875173404 0.8821764590186387 0 0 0
7577 2 27.36462687712772 0.046486195248714 3.199211474686905 0 0 0
7561 1 28.70017894747512 -0.38976751901613915 1.9986258344316097 0 0 0
7563 1 29.912245070209412 2.9307413873418864 -0.01267513218437566 0 0 0
7565 1 29.740775239592544 2.3432937932181055 3.7899882110482124 0 0 0
7567 1 32.09718524585802 1.7684289444044223 2.4493830931713734 0 0 0
7575 2 31.84062244140751 0.22384596609290253 1.4282128064774344 0 0 0
7579 2 31.37102771664406 3.0550487086863582 3.460177702003372 0 0 0
7581 2 33.021473537632545 2.674924072315846 0.9493504228465646 0 0 0
7583 2 31.12571271999241 1.9644115315649517 0.8872997180204685 0 0 0
8837 2 32.34687139681511 0.19811200719073396 3.3053898687403924 0 0 0
7594 1 32.332299563134754 1.1180353124285112 -0.07882313351842754 0 0 1
8823 1 34.5871361428094 2.6260128827035443 -0.12179109946479783 0 0 0
8825 1 34.717006750075235 2.403509124359668 3.6832521204233046 0 0 0
8827 1 36.79399866129608 1.4088794585423527 2.19836202527173 0 0 0
8835 2 36.987843643722805 -0.06586828429323244 1.062879758492832 0 0 0
8839 2 36.448017127429836 3.1194378838295473 3.0631211793485416 0 0 0
8843 2 35.89013506500775 1.4816733816788732 0.7429136612692664 0 0 0
10097 2 37.234575567907065 -0.16419847047688463 3.0331594762920577 0 0 0
8841 2 37.72823447151221 2.268544084557408 0.8556089234328458 0 0 0
10083 1 39.475674005932255 2.7278421627990515 0.19446607768914875 0 0 0
10085 1 39.444956945720975 2.2461321002106422 3.7561359986702585 0 0 0
10087 1 41.787032224652634 1.7798169658128384 2.4255172259865954 0 0 0
10099 2 40.95200940236192 3.2257193646561797 3.3156706042202226 0 0 0
10103 2 40.79559917791124 1.7510365475148326 0.9436905362962267 0 0 0
10095 2 42.32409012757165 0.5692258748747214 1.2886574842986311 0 0 0
10101 2 42.69094158579731 2.494394803734317 0.9199293069262753 0 0 0
11343 1 44.334470828192835 2.601668496689352 -0.08287446831752474 0 0 0
11345 1 44.39866835453563 2.1509746188431196 3.7031961918922014 0 0 0
11357 2 41.95129419365004 0.08787101114713469 3.1882328420233 0 0 0
11363 2 45.575685520983185 1.5383438594740642 0.7713434092194222 0 0 0
11359 2 46.09850745926107 2.94604593418069 3.221923860965492 0 0 0
11347 1 46.611168157521156 1.3379199041653644 2.2870141195265457 0 0 0
11355 2 46.59253745284941 -0.10955758962527523 1.073538371793862 0 0 0
11361 2 47.43547975941017 2.316654838220838 0.859067418283643 0 0 0
12603 1 49.026633258226504 2.52005334722702 -0.12865706872245117 0 0 0
12605 1 49.13682200670384 2.209394847855694 3.7348940060346987 0 0 0
12617 2 46.77291371539829 -0.2727056046842551 3.0035388475829286 0 0 0
63 1 0.5698951357599729 7.494716619035913 0.23371010758422717 0 0 0
65 1 0.7252032620346975 7.2080142469212065 3.711179261045554 0 0 0
67 1 3.005249040117627 6.47135586121573 2.3730740771958665 0 0 0
73 2 -0.003100632978490725 3.946950512640635 3.4765228242774042 0 0 0
75 2 3.1023196873513843 5.020758297880952 1.2362693895028218 0 0 0
83 2 1.9660685501291062 6.555819889633405 0.872746350561542 0 0 0
1337 2 3.3015253576091146 4.896252023353205 3.1735673342470876 0 0 0
61 1 -0.34158281996881046 4.39370386979471 1.7863356059137656 0 0 0
81 2 3.845167067144195 7.323993636469839 0.8086895020248197 0 0 0
1321 1 4.0660498764158435 3.759407332753045 2.0154120828947635 0 0 0
1323 1 5.556606222361697 7.3056026179563744 0.22810353955824564 0 0 0
1325 1 5.6157319601078095 7.219940347504365 3.6834292203394776 0 0 0
1327 1 7.734041966891034 6.226722670314296 2.3102256913601726 0 0 0
1333 2 4.931610661888118 3.915815279772156 3.616669296249844 0 0 0
1343 2 6.887145000061191 6.204247073069012 0.766898451448903 0 0 0
1339 2 7.408799929472059 7.925293396054286 3.0787767253763714 0 0 0
1335 2 8.442908723951565 5.0974888708333035 1.031066911767661 0 0 0
1341 2 8.753785305676866 7.114777403181707 0.9752711575046886 0 0 0
2581 1 9.566320076282024 4.033572925296116 1.8072310653977852 0 0 0
2583 1 10.388083293198415 7.655648000117026 0.26627145425399146 0 0 0
2585 1 10.468015944753413 6.987308166717801 3.7978712325651007 0 0 0
2593 2 9.886440614871862 3.8215976165870433 3.6171396754597667 0 0 0
2597 2 8.217051232248462 4.585335723459184 2.917183982446615 0 0 0
2603 2 11.823477651276418 6.714950837461141 1.0048351766309425 0 0 0
2599 2 12.04574157035412 7.731039689673079 3.344899863921209 0 0 0
2587 1 12.782207197411509 6.277418860799445 2.4573489678878437 0 0 0
2595 2 12.768362587845838 5.013351317697842 1.1391460080701916 0 0 0
2601 2 13.79029524180993 7.329741941079516 1.0305026449950834 0 0 0
3841 1 14.165168828621747 4.01962128627038 1.7938649676068128 0 0 0
3843 1 15.273958373711391 7.607107040860971 -0.12517186745276854 0 0 0
3845 1 15.194067710099821 6.903560477247808 3.8392279022369213 0 0 0
3853 2 14.535774348398519 3.7903790176125405 3.565900638729705 0 0 0
3857 2 12.764311436486128 4.45062803743639 2.9990162794936044 0 0 0
3863 2 16.515581018960766 6.776544258581814 0.8267369002112945 0 0 0
3847 1 17.363964386437456 6.515849079942577 2.4307053415339763 0 0 0
3855 2 17.134664061115565 5.029343812877456 1.452602156444771 0 0 0
3861 2 18.411591677172815 7.498880596528981 1.0252998583649036 0 0 0
5101 1 18.437746322701216 3.974039469442018 2.0888158537198134 0 0 0
5105 1 20.217600429913546 7.276681682336322 3.733490842267146 0 0 0
5113 2 19.350599006438337 3.999184421995614 3.7210667247000164 0 0 0
5117 2 17.669317674506622 4.972023734180039 3.3469415168826853 0 0 0
3874 1 17.794629171554075 5.951535539379844 -0.09743882940344181 0 0 1
3859 2 16.66952820036858 7.903140445641293 3.357249627136773 0 0 0
5123 2 21.32691244654302 6.6614399541595795 0.7693267302115657 0 0 0
5107 1 22.31283726979259 6.36080288300602 2.2255109767272563 0 0 0
5115 2 22.257255597144045 4.95191623343372 1.0268771780730068 0 0 0
5121 2 23.23380010592266 7.329727295083513 0.8727576072887768 0 0 0
6361 1 23.853283702266374 4.13165985401742 1.6394660650756199 0 0 0
6377 2 22.64719565290121 4.6653451331349425 2.9298118353053506 0 0 0
6363 1 24.88878002290041 7.55057190266808 -0.08322962767704671 0 0 0
6373 2 24.32750431885412 3.7476509682577337 3.42203064884442 0 0 0
6365 1 24.948549733238163 7.008801023668333 3.800175512882146 0 0 0
6367 1 27.187719039375366 6.580439919628012 2.3740195838342917 0 0 0
6375 2 27.12865332864353 5.188508014718868 1.1688040066271295 0 0 0
6381 2 28.123597903001436 7.560754313696075 1.0946221388030626 0 0 0
6383 2 26.228003578622516 6.861009581537927 0.797970046634166 0 0 0
7621 1 28.628735079905926 4.466195547829599 1.7856345546792571 0 0 0
7637 2 27.363759484216086 4.852116364091784 3.089872650582127 0 0 0
7633 2 29.078799493402233 4.002029756336204 3.5309956448887965 0 0 0
7623 1 29.766890793828143 7.621168216902252 0.10783248653396879 0 0 0
7625 1 29.705147328904737 7.132736934093178 3.7813651586129664 0 0 0
7627 1 32.1128682803973 6.47774390147072 2.381763661349076 0 0 0
7635 2 32.17129821901394 5.121075037379207 1.0816460879094543 0 0 0
7641 2 32.948939038929126 7.571562739486197 1.0433368948450878 0 0 0
7643 2 31.101400585403276 6.740878323680156 0.8769476939373617 0 0 0
8897 2 32.24673508678047 4.783051186788947 3.023381050777849 0 0 0
7639 2 31.343910098048323 7.888396053083628 3.2615461659294387 0 0 0
8881 1 33.61677975046154 4.307714583811637 1.8544275284381115 0 0 0
8883 1 34.646660671443954 7.607851203089844 0.19714329024754323 0 0 0
8885 1 34.81572755344916 7.1942467856054115 3.7188270521800075 0 0 0
8887 1 37.201298091817584 6.617199205768975 2.337249150059892 0 0 0
8893 2 33.98032829614023 4.046515859095682 3.6474709567303556 0 0 0
8895 2 36.88903413725376 5.2906445710425585 1.188639116817927 0 0 0
8903 2 36.138478350157165 7.054105602410892 0.9064046100927008 0 0 0
10157 2 37.16779430658284 5.031871735397969 3.1236215619103858 0 0 0
8899 2 36.34387049279908 7.936088483088081 3.294842796675091 0 0 0
8901 2 38.05790294430835 7.691860962225384 0.9891009013521652 0 0 0
10141 1 37.84711695112144 3.867104192038987 1.9048727837628356 0 0 0
10143 1 39.58093996303193 7.6076649919922 -0.05751635704529917 0 0 0
10145 1 39.579794675079526 7.1585195205080465 3.813865794882545 0 0 0
10153 2 38.754792374253796 3.969559302045557 3.5113134394456527 0 0 0
10163 2 40.89436386138231 6.649697584240781 0.8376371625252415 0 0 0
10159 2 41.19807543182934 7.764897876190309 3.4468410366787547 0 0 0
10147 1 41.84985626508423 6.41072191656083 2.4015008409236613 0 0 0
10155 2 42.031523220073844 5.093363284792291 1.089704598190773 0 0 0
10161 2 42.72054107670501 7.413002544588947 1.0606441803904103 0 0 0
11401 1 43.385630055770186 4.160029471152511 1.7895711655834616 0 0 0
11403 1 44.398332173307956 7.628915644937662 0.08869197925496167 0 0 0
11405 1 44.58144597417946 7.278758618531368 3.8243750951762756 0 0 0
11413 2 43.83758149837632 3.8832917715726465 3.557710933531592 0 0 0
11417 2 42.16037296966862 4.779042898794365 3.024093386737988 0 0 0
11423 2 45.57659591887302 6.404086699715876 0.7395105117645179 0 0 0
11407 1 46.42450363055035 6.3789429805359585 2.377407500543114 0 0 0
11415 2 47.01910506424377 5.195101985530366 1.226086077981761 0 0 0
11421 2 47.5069022636607 7.1134321036252866 0.9121626202587072 0 0 0
12661 1 47.808064115400384 3.812388228280171 1.973768974654527 0 0 0
12665 1 49.232995170568955 7.045381724536965 3.7406456331597657 0 0 0
12673 2 48.483308818802676 3.8470637646797314 3.6517304388187855 0 0 0
12677 2 46.872668695862934 4.795372478990865 3.128860581511576 0 0 0
11419 2 46.215282987644414 7.933637626786675 3.2217412612499285 0 0 0
12683 2 50.43931737309811 6.693573176856229 0.652295520485135 0 0 0
79 2 2.5125589938272235 8.054679121151668 3.127939511951753 0 0 0
127 1 3.262739959042446 11.391437336287392 2.1472385414087523 0 0 0
133 2 0.06216406596629209 8.86316947019619 3.639209315506021 0 0 0
135 2 2.7364106592395103 9.874968658769308 1.3490600784496238 0 0 0
143 2 2.2376579350789645 11.689135895398536 0.7242641613484851 0 0 0
1397 2 3.267546518456074 9.891767075338409 3.2455366546074655 0 0 0
125 1 0.7252640346078918 12.097053837532533 3.5490934844463378 0 0 0
123 1 0.5254719303637478 11.931317124400246 0.1449840076930266 0 0 0
121 1 -0.2742168735716084 9.2708358010726 1.920081515185219 0 0 0
1381 1 4.011645260146958 8.873772637318213 2.0014951522029754 0 0 0
1387 1 7.7892416989717965 11.308038510197155 2.332548214255684 0 0 0
1393 2 4.897899745375741 8.882619829233326 3.6036306023921143 0 0 0
1395 2 7.910603142190826 9.928310083376592 1.2991672657264015 0 0 0
1403 2 6.720955968021694 11.40863794782191 0.8334321007173925 0 0 0
1383 1 5.278954081881359 12.08131674508066 0.08722398661240582 0 0 0
2641 1 8.950398980610654 8.635187760294917 2.0577265870752837 0 0 0
2653 2 9.860653482113227 8.670045804020065 3.593116503584494 0 0 0
2657 2 8.313689098480014 9.80032566401566 3.217566982343643 0 0 0
2663 2 11.687586019714567 11.299386753284063 0.8532848535916321 0 0 0
2645 1 10.446850722437345 12.081569813898016 3.6592802996055376 0 0 0
2643 1 10.291403265764494 12.136686529075275 0.12995566827308747 0 0 0
2647 1 12.68357104891027 11.097519404687711 2.3468062414081743 0 0 0
2655 2 12.822165476005498 9.752471321644428 1.105080822350041 0 0 0
3901 1 14.301868289338652 9.010591406886267 1.7825678730000443 0 0 0
3913 2 14.729761441154567 8.514834427089923 3.4751163063962855 0 0 0
3917 2 13.035095707808505 9.399483987639902 3.0117452087794567 0 0 0
2661 2 13.490710065204265 12.179365645201086 0.9652380269079812 0 0 0
3905 1 15.298516859560952 12.083265183425706 3.7243156833361084 0 0 0
3923 2 16.54465449302419 11.162368154632553 0.6848844021386458 0 0 0
3907 1 17.44484209495573 11.13313268560479 2.2537139919873495 0 0 0
3915 2 18.041627269381127 9.966872288224817 0.9893213248880439 0 0 0
5161 1 19.323636463698136 9.024714015734968 1.9314827738017004 0 0 0
5173 2 19.502305325347667 8.949637916661814 3.7656309135791113 0 0 0
5177 2 17.79717837348639 9.488578666949149 2.8941203779291103 0 0 0
3921 2 18.410906306573956 11.974324004546446 0.8478303552793685 0 0 0
5165 1 20.12253306703299 12.130677480118797 3.666781736827832 0 0 0
5119 2 21.972263210527093 8.005300000433726 3.0169221324682294 0 0 0
5183 2 21.450002617988293 11.291397825930067 0.8713728207249245 0 0 0
5167 1 22.422185697595715 11.357603684172618 2.478200529172305 0 0 0
5175 2 22.987620016158704 10.172723135108066 1.3091152430512176 0 0 0
6421 1 23.67619121358043 8.680814160629145 2.010926811306003 0 0 0
6437 2 22.838119221265128 9.793817173689016 3.2213083698454934 0 0 0
6433 2 24.470256918986845 8.764115366986301 3.66800888029082 0 0 0
6425 1 24.878092611088512 12.122421110554132 3.7502034290255835 0 0 0
5181 2 23.301973846726398 12.132196916003286 0.9363208750061791 0 0 0
6379 2 26.45081282161027 7.983393981987513 3.4029465343837573 0 0 0
6427 1 27.106147095434608 11.418584474847032 2.4032651959097473 0 0 0
6435 2 27.183534546946 9.992327996862848 1.1618638318299568 0 0 0
6443 2 26.170820075613367 11.634165799942776 0.8946061819025031 0 0 0
7681 1 28.739072763447876 9.23291794476986 1.8562281059117898 0 0 0
7697 2 27.402626933643297 9.708198033871396 3.087284758525621 0 0 0
7693 2 29.062078818187327 8.737896697458252 3.5478990013555576 0 0 0
7687 1 31.89319098437793 11.263886191364353 2.26736243665255 0 0 0
7695 2 32.1886424703154 9.897665342194356 1.034418082148732 0 0 0
7703 2 30.989818572390632 11.381310045732093 0.6985923051420833 0 0 0
8957 2 32.317682088781055 9.586020275170169 2.9680881796795915 0 0 0
7685 1 29.72265718564531 11.963784868167243 3.7032387918940266 0 0 0
8941 1 33.696989346428126 9.308269428415926 1.8591736503617926 0 0 0
8947 1 37.06484182198051 11.184809778876733 2.2614256215593675 0 0 0
8953 2 34.040290359191694 8.810534889542524 3.573535183379962 0 0 0
8955 2 37.33778162678461 9.82745266323065 1.0612410558213998 0 0 0
8963 2 36.05592241056403 11.273058066888849 0.778823988724354 0 0 0
10217 2 37.33054212976194 9.623064740140704 3.040889004108068 0 0 0
8945 1 34.6952774097711 11.855680646663439 3.5238656032257722 0 0 0
8943 1 34.576159321671526 12.006137196846318 0.11943287658943491 0 0 0
10201 1 38.788542818137834 9.20873164532036 1.976305532025076 0 0 0
10207 1 41.85051961550144 11.13148148046707 2.2766252166893834 0 0 0
10213 2 39.01646565982565 8.84742005929958 3.716372992960689 0 0 0
10223 2 40.871658532121046 11.254085371270715 0.7605376140813007 0 0 0
10205 1 39.7453636255196 12.15487465368942 3.5710779532781656 0 0 0
10215 2 41.91714894039792 9.620129104803315 1.1082806783608588 0 0 0
10203 1 39.4932234586607 12.20206549667466 0.14510710187636927 0 0 0
11461 1 43.47550048545086 9.082150165035433 1.909646442069472 0 0 0
11473 2 43.877378853449734 8.926743181923126 3.7519827999289888 0 0 0
11477 2 42.12099260733102 9.49338459613799 3.0435929549466976 0 0 0
11483 2 45.65155758353058 11.303966829674108 0.7816712825822938 0 0 0
10221 2 42.74250247326958 12.110765161771218 0.8286738082525766 0 0 0
11465 1 44.50464517986335 12.006388668510548 3.614470373606518 0 0 0
11463 1 44.41246307295496 12.20689314559005 -0.12634756792914087 0 0 0
11467 1 46.74300144438166 11.268430064017231 2.2369667236449 0 0 0
11475 2 46.72011718659634 9.751941890157795 1.3715634943574178 0 0 0
12721 1 47.91169203351219 8.654197897985057 2.1004263090880646 0 0 0
12733 2 48.693491021891276 8.781481725859859 3.7099292406350504 0 0 0
12737 2 47.058262475349515 9.79574488764821 3.3035152783067856 0 0 0
12725 1 49.31674798995845 12.1621761514918 3.5157886200670716 0 0 0
11481 2 47.51089335813329 12.058484839363574 0.7838702423156109 0 0 0
139 2 2.4048745869805495 12.65548511359445 3.175958380888447 0 0 0
187 1 3.076111195145697 16.118234513763685 2.133725957355237 0 0 0
193 2 0.09987723508878521 13.856945383523781 3.5054755732223364 0 0 0
195 2 3.0962692880975635 14.660978193271081 0.9596958143764003 0 0 0
203 2 1.965533780605595 16.271435806372978 0.6946881570633163 0 0 0
1457 2 3.186644456250673 14.450654353969638 2.9065409074813906 0 0 0
181 1 -0.3043178487619646 13.933809000415643 1.790589511340269 0 0 0
1385 1 5.699116229177624 12.216087131828651 3.7371080364942673 0 0 0
141 2 3.859649503789581 12.792923725959383 1.0696044370783164 0 0 0
1399 2 7.365398261810443 12.981596146314235 3.0659929055347277 0 0 0
1441 1 4.661597306008246 14.25029243233636 1.8565403803816516 0 0 0
1453 2 4.9723868699259945 13.837479263893867 3.6460702255962896 0 0 0
1455 2 7.745717636648026 14.923016895405182 1.2459154081545947 0 0 0
1401 2 8.494452230957041 12.336671919889225 0.8737140966921519 0 0 0
1447 1 8.181043379635762 16.427805528252538 2.133267629914781 0 0 0
2701 1 8.886655499881382 13.729088602559454 2.029408921081167 0 0 0
2713 2 9.780013320818279 13.762751673096608 3.5616304633072637 0 0 0
2717 2 8.119230089614778 14.86743922360379 3.181693493314764 0 0 0
2659 2 12.192743584024619 12.833901137243162 3.2134305103229774 0 0 0
2707 1 12.886688658257512 16.314618866463366 2.3790464882379516 0 0 0
2715 2 12.258514217063437 14.855520739625849 1.5381012166241388 0 0 0
3903 1 15.236419423194167 12.400793957853312 0.3035698594001618 0 0 0
3961 1 13.522793172374424 13.687704228394981 2.094764498937527 0 0 0
3973 2 14.521259394082932 13.690484135646187 3.6248058922470587 0 0 0
3977 2 12.887338134673223 14.766591357268146 3.3961306300341856 0 0 0
3919 2 16.97946374903976 12.766935464007393 3.0911260150027924 0 0 0
3967 1 17.605515101428907 16.255742810160122 2.316897036849338 0 0 0
3975 2 17.513964743401413 14.863953743309937 1.1222419770502892 0 0 0
5163 1 20.14512052973724 12.337758815751474 0.30870724209923683 0 0 0
5221 1 18.353233238296546 13.559434295903884 1.893902061485079 0 0 0
5233 2 19.354552054657525 13.743197325506106 3.4614284741052104 0 0 0
5237 2 17.65964924672941 14.640146504402738 3.0646684050440824 0 0 0
5179 2 21.767847879964155 13.002860806410641 3.125962133968944 0 0 0
5227 1 22.599632469274926 16.410160729561074 2.448845092336907 0 0 0
5235 2 22.141193137115103 14.959706385790714 1.3853901142270144 0 0 0
6481 1 23.341716757723425 13.764928106031482 2.0451927490414996 0 0 0
6497 2 22.58724993580291 14.873215889181482 3.2846606203578417 0 0 0
6423 1 24.9363819537371 12.576173154373913 0.0921115967753991 0 0 0
6493 2 24.198819027946698 13.798578454374779 3.648736611116108 0 0 0
5254 1 22.750389628053323 15.911121261311926 -0.03081627658932473 0 0 1
6441 2 28.083900415722503 12.432308477635317 0.9323969530513614 0 0 0
6439 2 26.437042981728222 12.83382786442994 3.2766737734991995 0 0 0
6487 1 27.221154812640222 16.185930418022664 2.36019008098797 0 0 0
6495 2 27.147995347915415 14.788746970172175 1.1848178754816705 0 0 0
7741 1 28.711907344704954 14.045834328938609 1.8058309408258326 0 0 0
7757 2 27.448755102000327 14.52113259920596 3.0901518319983223 0 0 0
7753 2 29.169564860136088 13.664180228766188 3.5946344529655745 0 0 0
7701 2 32.80589383753614 12.271990719875589 0.8229885366776297 0 0 0
7683 1 29.72273574041135 12.389538154608147 -0.016698152162274604 0 0 0
7699 2 31.241818763577676 12.72055676840194 3.210956343617886 0 0 0
7747 1 31.989932668491733 15.986367303280083 2.2105198189621182 0 0 0
7755 2 31.947908938817314 14.668833483853264 0.9718322888981206 0 0 0
7763 2 30.874475236851367 16.31003088396799 0.7056287121609427 0 0 0
9017 2 32.30952265343355 14.394164657504959 2.857786003550721 0 0 0
9001 1 33.560371454583205 13.856432146794528 1.595375842204324 0 0 0
8959 2 36.31186439968982 12.56951541827407 3.2301236230076427 0 0 0
9007 1 36.97175203170343 15.973030333156636 2.1468346454237124 0 0 0
9013 2 33.97873768132857 13.501857813704827 3.3378214063934184 0 0 0
9015 2 37.094302311987654 14.615711819218966 0.8954804214826917 0 0 0
9023 2 35.82479207051375 16.091083173405664 0.7256238686532189 0 0 0
10277 2 37.189113821927656 14.29896898181752 2.813139858557211 0 0 0
8961 2 37.78078763268116 12.37215723088098 0.9731109644467342 0 0 0
10219 2 41.428919497315796 12.875869889160814 2.8384104588801065 0 0 0
10261 1 38.64173704432632 13.965358864855723 1.7543684324659925 0 0 0
10273 2 39.003376777529205 13.813164346204877 3.496762148648431 0 0 0
10275 2 41.63986975994065 14.763058041537235 1.1986534273580782 0 0 0
10267 1 42.12590721522691 16.284146527577107 2.116352739454422 0 0 0
11521 1 42.94136765719613 13.696207912020219 1.8153539979117823 0 0 0
11533 2 43.812207643062514 13.65890683085789 3.377274844844727 0 0 0
11537 2 42.19054909446786 14.759158176969708 3.0872001325358633 0 0 0
11479 2 46.10353817693028 12.975442832918528 2.976747003603208 0 0 0
11535 2 46.927643605523876 15.15319715795757 1.1813781308458868 0 0 0
12723 1 49.266822926219234 12.338476725753662 -0.13312451110799264 0 0 0
12781 1 47.68578095020694 13.666853694502134 1.87563549122802 0 0 0
12793 2 48.594629005334745 13.828846757354224 3.452260123291346 0 0 0
12797 2 46.92795997954333 14.816619140157563 3.0856263583477994 0 0 0
185 1 0.7903434814826145 16.90573811702075 3.489750514546743 0 0 0
199 2 2.4371440206532076 17.44610294822124 3.1759605745497494 0 0 0
253 2 -0.011445237055357715 18.618379230617514 3.4252731465982866 0 0 0
1517 2 3.3344328949945625 19.172980259101156 2.6887471981751023 0 0 0
241 1 -0.4472346980060494 18.814571023780108 1.610343351878233 0 0 0
255 2 3.789550116888784 19.834731081777623 0.8823021562201849 0 0 0
1463 2 7.218320317270834 16.71926523269776 0.633083627057195 0 0 0
201 2 3.803311277646878 17.19614642936941 0.7408250443519361 0 0 0
1443 1 5.527485940050658 16.779450297459363 0.03590269096308393 0 0 0
1445 1 5.735860086591314 16.911733888001837 3.627707578976305 0 0 0
1459 2 7.405099943938724 17.51857531092997 3.34114936346153 0 0 0
1501 1 4.754472797024489 18.625653153567143 1.6988344548238496 0 0 0
1513 2 5.0205817801339965 18.54371494731245 3.4860614736779114 0 0 0
2723 2 11.931303868673195 16.689371889026898 0.8458611481852782 0 0 0
1515 2 8.084113898681666 19.630988814533847 1.1448611089342657 0 0 0
1461 2 8.840417193646267 17.77104948462833 1.1229442705453117 0 0 0
2703 1 10.217764447226084 16.837950957005926 0.23558473495055926 0 0 0
2705 1 10.488001901661447 16.842892322424895 3.867590535502809 0 0 0
2761 1 9.614659068212989 19.171922151186443 2.000583115357834 0 0 0
2773 2 9.877728995034765 18.598067959740916 3.7173169094248824 0 0 0
2777 2 8.156624773499088 19.35903943952676 3.121477240062089 0 0 0
2719 2 12.090620840268494 17.589620504140186 3.454005492443828 0 0 0
3983 2 16.438031932285895 16.482877089386175 0.9265590342768575 0 0 0
2721 2 13.563686797833727 17.753229162358192 1.2292031159270738 0 0 0
2775 2 12.980160916859024 19.653948754809235 1.169092848665324 0 0 0
3963 1 14.965873716067332 17.064551919102886 0.24297756401954518 0 0 0
3965 1 15.493446875345413 17.04020132139545 3.8144341498498235 0 0 0
4021 1 14.400052948446296 19.047737302497843 2.0213595290703252 0 0 0
4033 2 14.756166182238202 18.620197669537465 3.7344533378654146 0 0 0
4037 2 12.978128891268055 19.341622328876507 3.1226631079676674 0 0 0
3979 2 17.12013247359575 17.82810464121954 3.2566506537553774 0 0 0
3981 2 18.267902044546247 17.321259079884193 0.8845833818179063 0 0 0
4035 2 17.470946617312954 19.703554418451542 1.42853161709834 0 0 0
5223 1 19.879097223137606 16.92197552649244 0.18620931475638786 0 0 0
5225 1 20.168421827312148 16.955655153627752 3.805910015617912 0 0 0
5281 1 18.692236804658585 18.59709074354247 2.1508180898626947 0 0 0
5293 2 19.53281800734521 18.673763005077237 3.7620893772006965 0 0 0
5297 2 17.873114569630935 19.684454119083906 3.372844541284805 0 0 0
4054 1 17.927150684156484 20.62028348936686 -0.07950347553598322 0 0 1
5243 2 21.518194019575006 16.815650609998716 1.0048424455285427 0 0 0
5239 2 21.757360020890676 17.63253804172504 3.486134273572303 0 0 0
5241 2 23.452660170753322 17.392436633778992 0.9531935252002091 0 0 0
5295 2 22.421037922436817 19.604441093504036 1.214528153058067 0 0 0
6541 1 23.948140404872653 19.003195335695413 1.9646017628049268 0 0 0
6557 2 22.631788873861584 19.435945695647778 3.1632893368441466 0 0 0
6553 2 24.334812127248032 18.610295702389482 3.7182334876761947 0 0 0
6503 2 26.247286277558533 16.48573415747282 0.8086760940640246 0 0 0
6483 1 25.034285624981433 17.597418973243467 -0.022072594724955236 0 0 0
6485 1 25.06310761946722 16.950614536291262 3.877150717326729 0 0 0
6499 2 26.665711115266756 17.569076724787646 3.4897447940330335 0 0 0
6501 2 28.143377010509806 17.14619119369223 0.9717030113149445 0 0 0
6555 2 27.33698802612904 19.618220240488167 1.206290978283947 0 0 0
7801 1 28.809038355001967 18.71674826467525 1.800670372365263 0 0 0
7817 2 27.56963453054692 19.327915108173457 3.107992545772751 0 0 0
7813 2 29.23303916677576 18.399485206271684 3.533246194700613 0 0 0
7745 1 29.974413414493352 16.766557227170004 3.6662144782390853 0 0 0
7759 2 31.72954074179252 17.546067778814987 3.2129355257175067 0 0 0
7761 2 32.75408491469732 17.037813571765486 0.8879241690648776 0 0 0
7815 2 31.908838784101114 19.68077179740072 1.3275669135585881 0 0 0
9061 1 33.14546104859946 18.52194529280432 1.9857141196449977 0 0 0
9077 2 32.30563459180546 19.466002251729343 3.234287372152653 0 0 0
7834 1 32.24120151198321 20.678184425132496 -0.12512025199599042 0 0 1
9003 1 34.46051217497349 16.995358714167487 0.050386885423823524 0 0 0
9005 1 34.91226022541974 16.974098528265536 3.6111435834309327 0 0 0
9019 2 36.62113212847088 17.595864571525006 2.9317299791186655 0 0 0
9073 2 34.01224755281972 18.574557683191298 3.55755821801844 0 0 0
9075 2 36.97434470734998 19.52537966726619 1.1407615740672377 0 0 0
10337 2 37.47614134950844 19.50963472240859 3.0301813029139537 0 0 0
9021 2 37.66594748741036 16.96571669795913 0.704664209781175 0 0 0
10283 2 41.14799535612685 16.630393617731613 0.69604214233246 0 0 0
10263 1 39.39118522887979 16.782506979437628 0.00807681326917048 0 0 0
10265 1 39.80543297458233 16.872542372080858 3.5597356679438388 0 0 0
10279 2 41.463818214519314 17.578215436336237 3.2146030864251993 0 0 0
10321 1 38.13971919367215 18.338613010425565 1.8678127857321072 0 0 0
10333 2 39.084007747269645 18.496093763995894 3.4538831167665207 0 0 0
11543 2 45.70550788385065 16.65321663557264 0.902248135527796 0 0 0
10335 2 41.99964345282344 19.55869348125914 1.134921670792819 0 0 0
10281 2 42.749503221820966 17.7383103000638 1.1742741345616348 0 0 0
11523 1 44.20591252837162 17.256809014446507 0.11782527747515831 0 0 0
11525 1 44.49352561169095 16.897301536843646 3.753016525468548 0 0 0
11581 1 43.61475953311313 19.148062325464892 1.886726321847183 0 0 0
11593 2 44.01870661473037 18.63194935472636 3.620126109164097 0 0 0