LAMMPS (29 Sep 2021)
  using 1 OpenMP thread(s) per MPI task
Reading data file ...
  orthogonal box = (-0.072926862 -0.058159411 0.0000000) to (101.71599 101.70122 620.30400)
  2 by 1 by 12 MPI processor grid
  reading atoms ...
  442392 atoms
  reading velocities ...
  442392 velocities
  read_data CPU = 4.973 seconds
221194 atoms in group g_left
221198 atoms in group g_right

CITE-CITE-CITE-CITE-CITE-CITE-CITE-CITE-CITE-CITE-CITE-CITE-CITE

Your simulation uses code contributions which should be cited:
- GPU package (short-range, long-range and three-body potentials):
The log file lists these citations in BibTeX format.

CITE-CITE-CITE-CITE-CITE-CITE-CITE-CITE-CITE-CITE-CITE-CITE-CITE


--------------------------------------------------------------------------
- Using acceleration for eam/alloy:
-  with 12 proc(s) per device.
-  Horizontal vector operations: ENABLED
-  Shared memory system: No
--------------------------------------------------------------------------
Device 0: Tesla V100-SXM2-32GB, 80 CUs, 28/32 GB, 1.5 GHZ (Mixed Precision)
Device 1: Tesla V100-SXM2-32GB, 80 CUs, 1.5 GHZ (Mixed Precision)
--------------------------------------------------------------------------

Initializing Device and compiling on process 0...Done.
Initializing Devices 0-1 on core 0...Done.
Initializing Devices 0-1 on core 1...Done.
Initializing Devices 0-1 on core 2...Done.
Initializing Devices 0-1 on core 3...Done.
Initializing Devices 0-1 on core 4...Done.
Initializing Devices 0-1 on core 5...Done.
Initializing Devices 0-1 on core 6...Done.
Initializing Devices 0-1 on core 7...Done.
Initializing Devices 0-1 on core 8...Done.
Initializing Devices 0-1 on core 9...Done.
Initializing Devices 0-1 on core 10...Done.
Initializing Devices 0-1 on core 11...Done.

Setting up Verlet run ...
  Unit style    : metal
  Current step  : 0
  Time step     : 0.00025
Per MPI rank memory allocation (min/avg/max) = 8.415 | 11.06 | 11.70 Mbytes
Step Time Temp Press PotEng KinEng TotEng Volume 
       0            0    7181.2403    65438.444   -1712948.3    410648.63   -1302299.7    6425094.9 
     100        0.025    7179.8121    65492.827   -1712944.7    410566.96   -1302377.7    6414736.9 
     200         0.05    7179.5577    65601.516   -1712933.9    410552.42   -1302381.5    6404378.9 
     300        0.075    7179.7016    65719.789   -1712921.5    410560.64   -1302360.9    6394020.9 
     400          0.1    7179.8722    65823.323   -1712942.2     410570.4   -1302371.8      6383663 
     500        0.125    7179.8188    65932.301   -1712960.3    410567.35     -1302393      6373305 
     600         0.15    7179.7275    66044.187   -1712946.3    410562.13   -1302384.1      6362947 
     700        0.175    7180.1387    66142.006   -1712945.9    410585.64   -1302360.3      6352589 
     800          0.2    7180.0222    66240.272   -1712937.1    410578.97   -1302358.1    6342231.1 
     900        0.225    7179.6485    66348.579   -1712925.2    410557.61   -1302367.5    6331873.1 
    1000         0.25    7180.3044    66442.226     -1712959    410595.12   -1302363.9    6321515.1 
    1100        0.275    7179.7449    66554.663   -1712932.7    410563.12   -1302369.6    6311157.1 
    1200          0.3    7178.7862    66658.468     -1712913     410508.3   -1302404.7    6300799.1 
    1300        0.325    7179.4208    66749.098   -1712969.6    410544.59     -1302425    6290441.2 
    1400         0.35    7179.0145    66886.968   -1712920.9    410521.35   -1302399.5    6280083.2 
    1500        0.375    7179.7896    66997.641   -1712936.7    410565.68     -1302371    6269725.2 
    1600          0.4    7179.6943     67095.83   -1712943.7    410560.23   -1302383.5    6259367.2 
    1700        0.425    7179.4459    67185.981   -1712961.4    410546.02   -1302415.4    6249009.3 
    1800         0.45    7178.6329    67307.233   -1712918.2    410499.53   -1302418.6    6238651.3 
    1900        0.475    7179.3873    67414.319     -1712943    410542.67   -1302400.3    6228293.3 
    2000          0.5    7179.3148    67540.516   -1712943.1    410538.53   -1302404.6    6217935.3 
    2100        0.525    7178.4858    67658.614   -1712926.6    410491.12   -1302435.5    6207577.3 
    2200         0.55     7178.494    67763.809   -1712941.3    410491.59   -1302449.7    6197219.4 
    2300        0.575    7178.6865    67861.228   -1712946.9     410502.6   -1302444.3    6186861.4 
    2400          0.6    7183.3699    67838.674   -1713224.9    410770.41   -1302454.5    6176503.4 
    2500        0.625     7195.929    68002.687   -1713968.1    411488.59   -1302479.5    6166145.4 
    2600         0.65    7162.2615    68983.242   -1712053.7    409563.36   -1302490.3    6155787.5 
    2700        0.675    7098.2193    70333.942   -1708382.5     405901.2   -1302481.3    6145429.5 
    2800          0.7     7051.224    74277.211   -1705696.4    403213.84   -1302482.6    6135071.5 
    2900        0.725    6993.5385    79406.353     -1702411    399915.18   -1302495.8    6124713.5 
    3000         0.75    6947.1077    84351.526   -1699753.5     397260.1   -1302493.4    6114355.5 
    3100        0.775    6885.0413    88984.138   -1696180.1    393710.93   -1302469.2    6103997.6 
    3200          0.8    6831.5977    94018.887   -1693106.1    390654.83   -1302451.2    6093639.6 
    3300        0.825    6773.8196     98868.62   -1689795.6    387350.88   -1302444.7    6083281.6 
    3400         0.85    6718.1771    103635.33   -1686600.9    384169.05   -1302431.9    6072923.6 
    3500        0.875    6659.9886    108240.08   -1683258.8    380841.62   -1302417.2    6062565.7 
    3600          0.9     6606.392    112857.53   -1680201.2    377776.78   -1302424.4    6052207.7 
    3700        0.925    6546.4103    117726.61   -1676802.2    374346.82   -1302455.4    6041849.7 
    3800         0.95    6495.2558    121984.46   -1673901.4    371421.62   -1302479.8    6031491.7 
    3900        0.975    6519.3611    122516.05   -1675276.7    372800.05   -1302476.6    6021133.8 
    4000            1    6534.9131    120920.68   -1676150.7    373689.36   -1302461.3    6010775.8 
    4100        1.025    6498.2763    120250.69   -1674055.3    371594.35   -1302460.9    6000417.8 
    4200         1.05    6520.7416    119933.12   -1675349.7    372878.99   -1302470.7    5990059.8 
    4300        1.075     6517.866    120745.98   -1675190.7    372714.55   -1302476.1    5979701.8 
    4400          1.1    6497.5748    121393.41   -1674033.4    371554.23   -1302479.2    5969343.9 
    4500        1.125    6530.2057    121240.49   -1675906.2    373420.18     -1302486    5958985.9 
    4600         1.15    6487.5981    121161.86   -1673471.8    370983.73   -1302488.1    5948627.9 
    4700        1.175    6495.5375    121958.43     -1673914    371437.73   -1302476.3    5938269.9 
    4800          1.2    6468.1526    123800.15   -1672328.3    369871.77   -1302456.6      5927912 
    4900        1.225    6444.7225     125132.6   -1670979.7    368531.95   -1302447.7      5917554 
    5000         1.25    6430.0797    125914.29   -1670136.5    367694.62   -1302441.9      5907196 
    5100        1.275    6391.4785    127012.39   -1667919.2    365487.27     -1302432      5896838 
    5200          1.3    6376.7754    128410.09   -1667066.5     364646.5     -1302420      5886480 
    5300        1.325    6342.3434    129944.58   -1665085.1    362677.55   -1302407.5    5876122.1 
    5400         1.35    6333.2517    131233.01   -1664553.3    362157.66   -1302395.6    5865764.1 
    5500        1.375    6301.5608    132332.29   -1662734.4    360345.46   -1302388.9    5855406.1 
    5600          1.4    6285.3623    133564.44   -1661808.5    359419.17   -1302389.3    5845048.1 
    5700        1.425    6260.7871    135017.71   -1660405.9    358013.88   -1302392.1    5834690.2 
    5800         1.45    6240.0039    136380.09   -1659208.5    356825.42     -1302383    5824332.2 
    5900        1.475    6222.1779    137905.68   -1658167.5    355806.06   -1302361.4    5813974.2 
    6000          1.5    6194.4652    139612.37   -1656582.1    354221.35   -1302360.7    5803616.2 
    6100        1.525    6183.9764    141106.59   -1656016.4    353621.57   -1302394.9    5793258.2 
    6200         1.55    6159.6586    142807.43   -1654661.8    352230.99   -1302430.8    5782900.3 
    6300        1.575     6139.395    144438.52   -1653507.6    351072.24   -1302435.4    5772542.3 
    6400          1.6    6125.0973    145928.38   -1652675.4    350254.65   -1302420.8    5762184.3 
    6500        1.625    6104.7952    147766.69   -1651523.7    349093.71     -1302430    5751826.3 
    6600         1.65    6064.5714    150642.83   -1649262.2    346793.57   -1302468.7    5741468.4 
    6700        1.675    6007.1432     155551.9     -1646004    343509.62   -1302494.4    5731110.4 
    6800          1.7    5930.0925    159107.25   -1641591.3    339103.59   -1302487.7    5720752.4 
    6900        1.725    5878.6397    163729.95   -1638630.7    336161.34   -1302469.3    5710394.4 
    7000         1.75    5804.6261    168811.31   -1634393.3    331928.98   -1302464.3    5700036.4 
    7100        1.775    5754.4641    172785.38   -1631529.7    329060.54   -1302469.2    5689678.5 
    7200          1.8    5699.2851    177094.82   -1628382.2    325905.21     -1302477    5679320.5 
    7300        1.825    5650.4411    181887.18   -1625599.4    323112.14   -1302487.2    5668962.5 
    7400         1.85     5610.344    185839.09   -1623316.4    320819.24   -1302497.1    5658604.5 
    7500        1.875     5568.989    190013.29   -1620957.4    318454.42     -1302503    5648246.6 
    7600          1.9    5535.5443     194426.7   -1619046.5    316541.94   -1302504.6    5637888.6 
    7700        1.925    5505.1731    198381.75   -1617307.4     314805.2   -1302502.2    5627530.6 
    7800         1.95    5475.2334    202128.57   -1615587.3    313093.14   -1302494.2    5617172.6 
    7900        1.975     5446.734     206336.7   -1613942.3    311463.45   -1302478.8    5606814.7 
    8000            2    5411.3232    210221.79     -1611913    309438.53   -1302474.5    5596456.7 
    8100        2.025    5382.2646    214088.04   -1610265.8    307776.86     -1302489    5586098.7 
    8200         2.05    5343.4566    218118.87   -1608068.6    305557.68   -1302510.9    5575740.7 
    8300        2.075    5311.7483    221847.81   -1606258.9    303744.49   -1302514.4    5565382.7 
    8400          2.1     5279.997    225538.02   -1604426.6    301928.84   -1302497.7    5555024.8 
    8500        2.125     5240.115    229609.31   -1602136.6    299648.24   -1302488.4    5544666.8 
    8600         2.15    5202.1559     234121.4   -1599971.1    297477.61   -1302493.5    5534308.8 
    8700        2.175    5158.2937    238780.84   -1597470.1    294969.42   -1302500.7    5523950.8 
    8800          2.2     5113.539    243313.65   -1594914.8    292410.18   -1302504.6    5513592.9 
    8900        2.225    5064.5555    247978.13   -1592113.2    289609.13   -1302504.1    5503234.9 
    9000         2.25    5015.7296    252941.23   -1589322.2     286817.1   -1302505.1    5492876.9 
    9100        2.275    4981.6273    256492.91   -1587379.5    284867.01   -1302512.5    5482518.9 
    9200          2.3    4987.0078    257639.37   -1587684.3    285174.68   -1302509.6    5472160.9 
    9300        2.325    4964.6262    258269.89   -1586398.7    283894.82   -1302503.8      5461803 
    9400         2.35    4925.3338    259869.81   -1584152.2    281647.95   -1302504.2      5451445 
    9500        2.375    4925.2551    261696.77   -1584139.5    281643.45   -1302496.1      5441087 
    9600          2.4    4892.0324    264215.98   -1582204.7    279743.65     -1302461      5430729 
    9700        2.425    4843.0547    267505.77   -1579359.5    276942.94   -1302416.5    5420371.1 
    9800         2.45    4829.4839    269597.61     -1578582    276166.91   -1302415.1    5410013.1 
    9900        2.475    4767.5074    272310.55   -1575071.9    272622.88     -1302449    5399655.1 
   10000          2.5    4727.4565    275185.79   -1572804.1    270332.62   -1302471.5    5389297.1 
   10100        2.525    4711.4261    278056.96   -1571875.9    269415.95   -1302459.9    5378939.1 
   10200         2.55    4645.6305    281471.86   -1568096.1    265653.53   -1302442.6    5368581.2 
   10300        2.575    4620.5958    284116.19   -1566672.1    264221.95   -1302450.1    5358223.2 
   10400          2.6    4574.0556    286419.33   -1564029.6    261560.62     -1302469    5347865.2 
   10500        2.625    4536.4519    288536.39   -1561888.1    259410.31   -1302477.8    5337507.2 
   10600         2.65    4515.0501    289813.46   -1560662.3    258186.48   -1302475.8    5327149.3 
   10700        2.675    4471.0512     291318.1     -1558157    255670.47   -1302486.6    5316791.3 
   10800          2.7    4442.3225    292611.27   -1556540.4    254027.66   -1302512.8    5306433.3 
   10900        2.725    4402.0577    293784.06   -1554253.2    251725.18   -1302528.1    5296075.3 
   11000         2.75    4368.5454    295167.88   -1552337.9    249808.83     -1302529    5285717.3 
   11100        2.775    4342.7582    296810.56   -1550865.4    248334.22   -1302531.2    5275359.4 
   11200          2.8    4314.8907    298516.26   -1549274.8    246740.66   -1302534.2    5265001.4 
   11300        2.825    4285.4666    300015.23   -1547584.6    245058.08   -1302526.5    5254643.4 
   11400         2.85    4250.7795    301505.45   -1545590.9    243074.56   -1302516.4    5244285.4 
   11500        2.875    4221.5205    303204.41   -1543919.4    241401.42   -1302517.9    5233927.5 
   11600          2.9    4194.8322    305103.42   -1542406.4    239875.29   -1302531.1    5223569.5 
   11700        2.925    4165.5505    307349.98   -1540736.5    238200.86   -1302535.6    5213211.5 
   11800         2.95    4148.8148    309477.87   -1539763.4    237243.85   -1302519.6    5202853.5 
   11900        2.975    4139.5867    311979.54     -1539224    236716.16   -1302507.8    5192495.6 
   12000            3    4136.7168    314574.87   -1539070.1    236552.05     -1302518    5182137.6 
   12100        3.025    4139.7201    317724.14   -1539262.9    236723.79   -1302539.1    5171779.6 
   12200         3.05    4130.6872    321578.78   -1538754.3    236207.26   -1302547.1    5161421.6 
   12300        3.075    4116.8551    326348.49   -1537961.6    235416.28   -1302545.3    5151063.6 
   12400          3.1    4101.9704    331530.08     -1537111    234565.13   -1302545.9    5140705.7 
   12500        3.125    4073.2564    336263.52   -1535473.7    232923.16   -1302550.6    5130347.7 
   12600         3.15    4050.0311    341485.42     -1534156    231595.06     -1302561    5119989.7 
   12700        3.175    4030.9395    346796.95   -1533072.6    230503.33   -1302569.3    5109631.7 
   12800          3.2    3995.9741    352507.23   -1531080.4    228503.88   -1302576.5    5099273.8 
   12900        3.225    3973.8987    358062.83   -1529827.1    227241.54   -1302585.5    5088915.8 
   13000         3.25    3939.4829    363144.37   -1527861.9    225273.52   -1302588.4    5078557.8 
   13100        3.275    3908.4454    368152.73   -1526073.8    223498.69   -1302575.1    5068199.8 
   13200          3.3    3883.5292    373072.94   -1524634.3    222073.89   -1302560.4    5057841.8 
   13300        3.325    3853.1169    378040.92   -1522898.7    220334.81   -1302563.9    5047483.9 
   13400         3.35    3824.9763    382783.71   -1521300.7    218725.63     -1302575    5037125.9 
   13500        3.375     3797.134     387397.8   -1519712.7    217133.51   -1302579.2    5026767.9 
   13600          3.4    3769.4997    391783.05   -1518119.6    215553.28   -1302566.3    5016409.9 
   13700        3.425    3748.9758    396075.69   -1516925.8    214379.65   -1302546.2      5006052 
   13800         3.45    3722.1017    400352.02   -1515376.4     212842.9   -1302533.5      4995694 
   13900        3.475    3693.6599    404553.26     -1513743     211216.5   -1302526.5      4985336 
   14000          3.5    3658.2725    408497.17   -1511706.8    209192.92   -1302513.9      4974978 
   14100        3.525    3624.3317    412392.43   -1509747.5    207252.06   -1302495.5      4964620 
   14200         3.55     3583.127    416567.84   -1507385.3    204895.83   -1302489.4    4954262.1 
   14300        3.575    3516.5967    420981.55   -1503587.1    201091.39   -1302495.7    4943904.1 
   14400          3.6    3454.5485    425572.44   -1500038.1    197543.26   -1302494.8    4933546.1 
   14500        3.625    3396.2723    430498.94   -1496703.6    194210.82   -1302492.7    4923188.1 
   14600         3.65    3328.2543    435940.33   -1492823.4    190321.31     -1302502    4912830.2 
   14700        3.675    3266.1597    441795.69   -1489281.9    186770.52   -1302511.3    4902472.2 
   14800          3.7    3210.1819    447400.48   -1486079.2    183569.52   -1302509.7    4892114.2 
   14900        3.725    3147.5519    452394.31   -1482495.3    179988.11   -1302507.2    4881756.2 
   15000         3.75    3092.9623    457596.63   -1479380.3    176866.49   -1302513.8    4871398.2 
   15100        3.775    3038.1732    462812.46   -1476243.2    173733.45   -1302509.8    4861040.3 
   15200          3.8    2995.0288    467599.07   -1473754.1    171266.31   -1302487.8    4850682.3 
   15300        3.825    2957.8307    471273.61   -1471605.6    169139.18   -1302466.4    4840324.3 
   15400         3.85    2909.7247    474626.39   -1468852.1    166388.32   -1302463.7    4829966.3 
   15500        3.875    2864.5297    478263.48   -1466271.2     163803.9   -1302467.3    4819608.4 
   15600          3.9    2822.2227    482506.29   -1463848.9    161384.64   -1302464.3    4809250.4 
   15700        3.925    2771.1224    487752.15   -1460918.5    158462.54     -1302456    4798892.4 
   15800         3.95    2723.2252    493393.43   -1458179.3    155723.62   -1302455.7    4788534.4 
   15900        3.975    2672.7983    499011.64     -1455305    152840.03     -1302465    4778176.5 
   16000            4    2624.3899    504583.68   -1452524.6    150071.86   -1302452.7    4767818.5 
   16100        4.025     2577.035    510162.96   -1449783.1    147363.95   -1302419.2    4757460.5 
   16200         4.05     2525.922    515841.13   -1446839.5    144441.12   -1302398.4    4747102.5 
   16300        4.075    2481.8825    520980.04   -1444336.1    141922.79   -1302413.3    4736744.5 
   16400          4.1     2439.501    525355.55   -1441943.7    139499.27   -1302444.4    4726386.6 
   16500        4.125    2415.0867    528688.25     -1440562    138103.17   -1302458.9    4716028.6 
   16600         4.15    2400.6752    531387.54   -1439727.3    137279.07   -1302448.2    4705670.6 
   16700        4.175    2388.3436    534229.08     -1439020    136573.91   -1302446.1    4695312.6 
   16800          4.2    2368.5281    537285.47   -1437910.2    135440.79   -1302469.4    4684954.7 
   16900        4.225    2348.2632    540460.79   -1436769.7    134281.97   -1302487.7    4674596.7 
   17000         4.25    2336.1526    543375.45   -1436072.3    133589.44   -1302482.9    4664238.7 
   17100        4.275    2318.9633     546458.8   -1435078.9     132606.5   -1302472.4    4653880.7 
   17200          4.3    2303.9526     549611.6     -1434232    131748.13   -1302483.9    4643522.7 
   17300        4.325    2286.6194    552669.46   -1433262.7    130756.96   -1302505.7    4633164.8 
   17400         4.35    2275.5046    555965.65   -1432626.1    130121.37   -1302504.8    4622806.8 
   17500        4.375    2260.8908    559400.33   -1431772.1    129285.71   -1302486.4    4612448.8 
   17600          4.4    2253.4411    562224.01   -1431337.1    128859.71   -1302477.4    4602090.8 
   17700        4.425    2253.2135    564002.01     -1431330    128846.69   -1302483.3    4591732.9 
   17800         4.45    2253.1169    565516.78   -1431332.3    128841.17   -1302491.1    4581374.9 
   17900        4.475     2245.131    567258.62   -1430875.2     128384.5   -1302490.7    4571016.9 
   18000          4.5    2246.0105    569436.99   -1430925.9    128434.79   -1302491.1    4560658.9 
   18100        4.525    2244.1775     572351.4   -1430832.4    128329.98   -1302502.4    4550300.9 
   18200         4.55    2240.9212    575458.76   -1430674.5    128143.77   -1302530.7      4539943 
   18300        4.575    2235.7726    578469.87   -1430407.9    127849.36   -1302558.6      4529585 
   18400          4.6    2235.9751    581198.81   -1430429.6    127860.94   -1302568.7      4519227 
   18500        4.625    2228.4365     584163.4   -1429997.7    127429.86   -1302567.9      4508869 
   18600         4.65    2223.2976    587502.81   -1429698.3    127135.99   -1302562.3    4498511.1 
   18700        4.675    2215.7925    590946.94   -1429269.7    126706.82   -1302562.9    4488153.1 
   18800          4.7    2209.3185    594649.05   -1428900.1    126336.62   -1302563.5    4477795.1 
   18900        4.725    2198.9968    598593.75   -1428301.9    125746.39   -1302555.6    4467437.1 
   19000         4.75    2183.3533    602831.56   -1427390.3    124851.84   -1302538.4    4457079.1 
   19100        4.775    2161.1534    607463.89   -1426107.7    123582.37   -1302525.4    4446721.2 
   19200          4.8    2131.9208    612186.18   -1424438.9    121910.74   -1302528.2    4436363.2 
   19300        4.825    2096.0721    617182.76     -1422392    119860.79   -1302531.2    4426005.2 
   19400         4.85    2054.9942    622599.77   -1420019.7    117511.81   -1302507.9    4415647.2 
   19500        4.875    2011.5572     628268.2   -1417470.6    115027.93   -1302442.6    4405289.3 
   19600          4.9    1963.5127    634973.01   -1414599.8    112280.58   -1302319.2    4394931.3 
   19700        4.925     1911.077    642310.74   -1411341.1    109282.12   -1302058.9    4384573.3 
   19800         4.95    1862.9551    649617.82   -1408059.4    106530.34   -1301529.1    4374215.3 
   19900        4.975    1820.2777    657253.21   -1404672.7     104089.9   -1300582.8    4363857.4 
   20000            5     1784.463    665775.84     -1401144    102041.88   -1299102.2    4353499.4 
   20100        5.025    1756.3313    674360.23   -1397496.1    100433.21   -1297062.9    4343141.4 
   20200         5.05    1725.5318    682840.33   -1393232.8    98671.991   -1294560.8    4332783.4 
   20300        5.075      1695.41    692287.36   -1388651.8    96949.521   -1291702.3    4322425.4 
   20400          5.1    1655.1767    703039.31   -1382994.3    94648.839   -1288345.5    4312067.5 
   20500        5.125    1619.2593    715957.08   -1375746.3    92594.955   -1283151.3    4301709.5 
   20600         5.15    1646.8327    732792.06   -1365666.3    94171.697   -1271494.6    4291351.5 
   20700        5.175     1790.031     751818.4   -1354068.5    102360.28   -1251708.2    4280993.5 
   20800          5.2    1959.6122    770892.67     -1343210    112057.54   -1231152.4    4270635.6 
   20900        5.225    2042.5792    788664.69   -1331739.6    116801.88   -1214937.8    4260277.6 
   21000         5.25    2126.4513     805914.4   -1321108.5    121597.98   -1199510.5    4249919.6 
   21100        5.275    2264.8334    821937.91   -1310401.2    129511.16     -1180890    4239561.6 
   21200          5.3    2456.1389     835226.7   -1302342.4    140450.68   -1161891.7    4229203.6 
   21300        5.325    2596.5699     842771.3   -1294367.8    148481.02   -1145886.7    4218845.7 
   21400         5.35    2745.6099    847970.92   -1287156.6    157003.65   -1130152.9    4208487.7 
   21500        5.375    2910.6456    853843.95   -1278606.9    166440.97   -1112165.9    4198129.7 
   21600          5.4    3069.8003    860160.59   -1271188.3       175542   -1095646.3    4187771.7 
   21700        5.425    3118.9037    865902.95   -1262112.7    178349.91   -1083762.8    4177413.8 
   21800         5.45    3125.5975    870774.01   -1253016.2    178732.68   -1074283.5    4167055.8 
   21900        5.475    3120.4749    875091.92   -1243059.6    178439.76   -1064619.9    4156697.8 
   22000          5.5    3105.1272     879493.9   -1233696.8    177562.12   -1056134.7    4146339.8 
   22100        5.525    3042.0199    883751.53   -1223988.3    173953.42   -1050034.8    4135981.8 
   22200         5.55    2980.2714    888076.73   -1215193.2    170422.43   -1044770.8    4125623.9 
   22300        5.575     2948.372    892953.13   -1206256.9     168598.3   -1037658.6    4115265.9 
   22400          5.6    2958.9146    899092.92   -1197562.9    169201.17   -1028361.7    4104907.9 
   22500        5.625    2970.2973    906447.98   -1189281.6    169852.07   -1019429.5    4094549.9 
   22600         5.65    2946.3139    915989.09   -1180570.1    168480.61   -1012089.5      4084192 
   22700        5.675    2919.8833    929017.16   -1171423.4    166969.22   -1004454.2      4073834 
   22800          5.7    2915.4809    944809.84   -1161910.1    166717.48   -995192.66      4063476 
   22900        5.725    2931.9752    961212.79   -1152881.2    167660.67   -985220.55      4053118 
   23000         5.75    2951.7557     977246.9   -1144141.8     168791.8   -975350.01      4042760 
   23100        5.775    3005.9889    993632.59   -1136457.9    171893.04   -964564.88    4032402.1 
   23200          5.8    3097.7309    1009393.3   -1129257.8    177139.17    -952118.6    4022044.1 
   23300        5.825    3202.3927    1024754.4   -1122386.4     183124.1   -939262.28    4011686.1 
   23400         5.85    3306.2255    1039753.6   -1115895.9    189061.63   -926834.24    4001328.1 
   23500        5.875    3423.4253    1055119.2   -1109558.7    195763.53   -913795.21    3990970.2 
   23600          5.9    3548.0729    1070326.2     -1103111    202891.31    -900219.7    3980612.2 
   23700        5.925      3649.47    1085142.8   -1096091.1    208689.56   -887401.57    3970254.2 
   23800         5.95     3728.336    1099611.1   -1088651.7    213199.39    -875452.3    3959896.2 
   23900        5.975    3823.8886    1114144.3   -1081385.2    218663.43   -862721.73    3949538.3 
   24000            6    3955.7486      1127050   -1075032.2    226203.65   -848828.57    3939180.3 
   24100        6.025    4109.3637    1136607.7   -1069785.5     234987.9   -834797.61    3928822.3 
   24200         6.05      4264.49    1143436.8   -1064225.7    243858.57   -820367.14    3918464.3 
   24300        6.075    4436.6093    1150636.4   -1057769.4    253700.96   -804068.46    3908106.3 
   24400          6.1    4630.0003    1160024.8   -1051263.2    264759.74    -786503.5    3897748.4 
   24500        6.125    4811.7389    1170727.7   -1044327.8    275152.19   -769175.57    3887390.4 
   24600         6.15    4989.4472    1182720.3   -1037495.5    285314.18   -752181.33    3877032.4 
   24700        6.175    5175.5479      1195629   -1030748.8    295956.07   -734792.68    3866674.4 
   24800          6.2    5352.1943    1207791.4   -1023850.8    306057.34   -717793.51    3856316.5 
   24900        6.225    5507.0218    1218588.9   -1016748.2    314910.92   -701837.29    3845958.5 
   25000         6.25    5663.1869    1228642.3   -1010202.3    323840.99   -686361.32    3835600.5 
   25100        6.275     5820.223    1237961.8   -1003558.2    332820.86   -670737.38    3825242.5 
   25200          6.3    5968.4609    1247711.5   -997032.07    341297.63   -655734.44    3814884.5 
   25300        6.325     6091.504    1258905.1    -990439.7    348333.67   -642106.03    3804526.6 
   25400         6.35    6187.9755    1271356.6   -983186.21    353850.25   -629335.96    3794168.6 
   25500        6.375    6280.1484    1285311.2   -975786.32    359121.02    -616665.3    3783810.6 
   25600          6.4    6365.9503    1300683.7   -968617.93    364027.48   -604590.46    3773452.6 
   25700        6.425    6423.0941    1316702.8   -960616.78    367295.16   -593321.62    3763094.7 
   25800         6.45      6469.96    1333815.6   -952287.49    369975.12   -582312.37    3752736.7 
   25900        6.475    6516.7886    1351426.7    -943818.5    372652.94   -571165.56    3742378.7 
   26000          6.5    6550.8055    1369145.9   -934641.79    374598.15   -560043.64    3732020.7 
   26100        6.525    6584.1477    1386313.1   -925414.01    376504.78   -548909.23    3721662.7 
   26200         6.55    6608.1975    1403151.3   -915227.42    377880.03    -537347.4    3711304.8 
   26300        6.575     6639.419    1419950.7   -904861.33    379665.38   -525195.95    3700946.8 
   26400          6.6     6663.449    1436309.8   -893891.38     381039.5   -512851.88    3690588.8 
   26500        6.625    6684.0953    1452601.3   -882938.42    382220.13   -500718.29    3680230.8 
   26600         6.65    6703.7334    1469185.9   -871884.23     383343.1   -488541.13    3669872.9 
   26700        6.675    6715.3751    1485653.1   -860525.62    384008.82    -476516.8    3659514.9 
   26800          6.7    6714.6338      1501810   -849121.33    383966.43    -465154.9    3649156.9 
   26900        6.725       6698.7    1517365.2   -837509.92    383055.28   -454454.64    3638798.9 
   27000         6.75     6670.461    1532235.1   -825691.08    381440.47   -444250.61    3628440.9 
   27100        6.775     6630.405    1546614.3   -813742.89    379149.93   -434592.96      3618083 
   27200          6.8    6575.9899    1561174.9   -801712.07    376038.28   -425673.78      3607725 
   27300        6.825    6516.1088    1576434.1   -789701.83    372614.07   -417087.76      3597367 
   27400         6.85    6467.8652      1592337   -778542.91    369855.33   -408687.58      3587009 
   27500        6.875    6430.1754    1608711.4   -768017.11    367700.09   -400317.01    3576651.1 
   27600          6.9    6407.1773    1625118.3   -758373.57    366384.98   -391988.58    3566293.1 
   27700        6.925    6402.4687    1641533.3   -749574.29    366115.73   -383458.56    3555935.1 
   27800         6.95    6425.6628    1658304.1   -741901.74    367442.05   -374459.69    3545577.1 
   27900        6.975    6465.4289    1674877.3   -734632.14    369716.02   -364916.12    3535219.2 
   28000            7    6521.4336      1691631   -728039.97    372918.56   -355121.41    3524861.2 
   28100        7.025    6588.1683    1707958.1   -721887.45    376734.69   -345152.76    3514503.2 
   28200         7.05    6668.1292    1724089.7   -716209.16    381307.13   -334902.02    3504145.2 
   28300        7.075    6756.5887    1739702.9    -710819.3    386365.56   -324453.74    3493787.2 
   28400          7.1     6856.142    1754761.5   -705918.46    392058.36    -313860.1    3483429.3 
   28500        7.125    6966.6725    1768387.7   -701465.35    398378.89   -303086.46    3473071.3 
   28600         7.15    7094.9012    1781116.3   -697784.08    405711.46   -292072.62    3462713.3 
   28700        7.175    7218.2086    1792793.5    -694026.4    412762.61   -281263.79    3452355.3 
   28800          7.2    7342.4558    1802748.8   -690722.55     419867.5   -270855.05    3441997.4 
   28900        7.225    7468.6354    1811735.6   -687667.16     427082.9   -260584.26    3431639.4 
   29000         7.25    7590.3143    1819795.1   -684355.23    434040.93   -250314.31    3421281.4 
   29100        7.275    7709.6553    1827464.9   -681115.55    440865.26   -240250.29    3410923.4 
   29200          7.3    7810.8411    1834849.2   -677160.23    446651.42    -230508.8    3400565.4 
   29300        7.325    7894.0302      1843450   -672254.15    451408.47   -220845.68    3390207.5 
   29400         7.35    7953.0185    1853558.3   -665726.88    454781.63   -210945.26    3379849.5 
   29500        7.375     7999.873    1864935.1   -658014.41    457460.94   -200553.47    3369491.5 
   29600          7.4     8055.274      1878625   -650124.88    460628.96   -189495.92    3359133.5 
   29700        7.425    8103.3498    1894611.2   -640794.92     463378.1   -177416.82    3348775.6 
   29800         7.45    8156.2721    1913232.1   -630492.87    466404.39   -164088.48    3338417.6 
   29900        7.475    8198.0141    1934582.1   -618655.76    468791.34   -149864.41    3328059.6 
   30000          7.5    8207.0864    1958191.7   -604566.69    469310.13   -135256.56    3317701.6 
   30100        7.525    8182.8826    1984020.4   -588220.27    467926.07    -120294.2    3307343.6 
   30200         7.55    8138.8351    2010628.7   -570127.59    465407.28   -104720.31    3296985.7 
   30300        7.575    8099.7559      2038395   -551830.98    463172.59   -88658.389    3286627.7 
   30400          7.6    8053.2713    2066852.8   -532867.63    460514.44   -72353.192    3276269.7 
   30500        7.625    7998.1849    2095537.3   -513153.13     457364.4   -55788.722    3265911.7 
   30600         7.65     7944.832    2124622.2   -493213.85     454313.5   -38900.355    3255553.8 
   30700        7.675    7891.8926    2153918.4   -473229.52    451286.24   -21943.286    3245195.8 
   30800          7.7    7831.8654    2184993.4   -452994.56    447853.67   -5140.8878    3234837.8 
   30900        7.725    7768.6666      2218371   -432677.41    444239.74    11562.332    3224479.8 
   31000         7.75    7697.7003    2253041.2   -411963.33    440181.63    28218.301    3214121.8 
   31100        7.775    7626.4027    2286439.5   -391418.98    436104.59    44685.608    3203763.9 
   31200          7.8    7555.9115    2317361.5   -371258.24    432073.65     60815.41    3193405.9 
   31300        7.825     7475.529    2347335.2   -350771.59     427477.1    76705.509    3183047.9 
   31400         7.85     7400.281    2377233.9   -330728.83    423174.15    92445.326    3172689.9 
   31500        7.875    7312.3819    2407184.8    -310245.8    418147.77    107901.97      3162332 
   31600          7.9    7222.8316      2437183   -290079.28    413026.97    122947.69      3151974 
   31700        7.925    7156.5075    2468210.1   -271656.25    409234.32    137578.08      3141616 
   31800         7.95    7088.0183    2498856.5   -253483.25    405317.87    151834.61      3131258 
   31900        7.975    7042.2404    2528812.4   -236868.57    402700.13    165831.56    3120900.1 
   32000            8    7024.8129    2557670.5   -222033.17    401703.56    179670.39    3110542.1 
   32100        8.025    7025.5608    2584935.1   -208416.05    401746.33    193330.28    3100184.1 
   32200         8.05    7040.3842    2609209.6   -195736.58    402593.99    206857.41    3089826.1 
   32300        8.075    7066.8176    2631361.7   -183651.31    404105.54    220454.23    3079468.1 
   32400          8.1    7117.5794    2652075.5   -172724.24    407008.28    234284.04    3069110.2 
   32500        8.125    7182.5471    2672301.9   -162411.47    410723.36    248311.89    3058752.2 
   32600         8.15    7257.6248    2691703.7    -152424.3    415016.57    262592.26    3048394.2 
   32700        8.175    7349.4204    2711083.6   -143042.36    420265.77    277223.41    3038036.2 
   32800          8.2    7428.5162    2730136.1   -132631.78    424788.74    292156.96    3027678.3 
   32900        8.225      7499.85    2750108.4      -121746    428867.86    307121.86    3017320.3 
   33000         8.25    7552.7657    2772208.5   -109933.74    431893.77    321960.03    3006962.3 
   33100        8.275    7568.8495    2797662.3   -96093.373    432813.49    336720.12    2996604.3 
   33200          8.3     7574.228    2826640.4   -81720.637    433121.06    351400.42    2986246.3 
   33300        8.325     7533.154    2859126.3   -64989.766     430772.3    365782.53    2975888.4 
   33400         8.35    7442.1038    2892753.1   -45881.558    425565.73    379684.17    2965530.4 
   33500        8.375    7323.9863    2926002.9   -25689.092    418811.35    393122.26    2955172.4 
   33600          8.4    7171.9515    2960725.7   -3972.9781    410117.47    406144.49    2944814.4 
   33700        8.425    6985.1726    2997186.4    19196.719    399436.79    418633.51    2934456.5 
   33800         8.45    6772.8419    3035476.7    43197.034    387294.97    430492.01    2924098.5 
   33900        8.475    6532.0454    3075061.2     68246.78    373525.38    441772.16    2913740.5 
   34000          8.5    6259.8514    3115453.7    94598.731    357960.37     452559.1    2903382.5 
   34100        8.525     5983.152      3154629    120757.16    342137.72    462894.88    2893024.5 
   34200         8.55    5690.0303    3193674.3    147346.55    325375.99    472722.54    2882666.6 
   34300        8.575    5426.7606    3230935.7    171823.02     310321.3    482144.32    2872308.6 
   34400          8.6    5177.4797    3265513.6    195226.57    296066.54    491293.11    2861950.6 
   34500        8.625    4948.7119    3297302.6     217204.2    282984.79    500188.99    2851592.6 
   34600         8.65    4750.8767    3325969.7    237173.64    271671.87    508845.52    2841234.7 
   34700        8.675    4598.7287    3352856.9    254291.27    262971.52    517262.78    2830876.7 
   34800          8.7    4456.1385    3377606.7    270669.37    254817.71    525487.08    2820518.7 
   34900        8.725    4364.7406    3398918.9    284038.92    249591.25    533630.17    2810160.7 
   35000         8.75    4305.2811    3418321.2    295513.17    246191.15    541704.32    2799802.7 
   35100        8.775    4290.7361      3437153    304256.37    245359.41    549615.78    2789444.8 
   35200          8.8     4280.428    3456527.4    312643.99    244769.96    557413.95    2779086.8 
   35300        8.825    4286.3376    3478405.8    320055.06    245107.89    565162.96    2768728.8 
   35400         8.85    4293.8392    3504680.9    327444.82    245536.86    572981.68    2758370.8 
   35500        8.875    4292.7046    3533226.5    335442.83    245471.98    580914.81    2748012.9 
   35600          8.9    4297.2308    3563317.1    343339.55     245730.8    589070.36    2737654.9 
   35700        8.925    4274.6018    3594694.9    353333.71     244436.8    597770.51    2727296.9 
   35800         8.95    4258.1768      3628595    364678.32    243497.56    608175.88    2716938.9 
   35900        8.975    4239.7091    3666138.6    380410.95    242441.51    622852.47      2706581 
   36000            9    4257.8823    3707818.5     401071.7    243480.72    644552.42      2696223 
   36100        9.025    4340.5685    3754369.9    424962.21    248209.01    673171.22      2685865 
   36200         9.05    4432.1832    3804825.5    452316.57    253447.86    705764.42      2675507 
   36300        9.075    4522.9778    3860619.4    481413.21    258639.81    740053.02      2665149 
   36400          9.1     4583.277    3921227.7    513839.73    262087.93    775927.66    2654791.1 
   36500        9.125    4715.6304    3983721.2    546913.19    269656.37    816569.56    2644433.1 
   36600         9.15    4896.2206    4047003.8    580410.27    279983.15    860393.43    2634075.1 
   36700        9.175     5065.982    4111381.4    614246.43    289690.71    903937.14    2623717.1 
   36800          9.2    5223.0196    4178116.7    648109.74    298670.67    946780.41    2613359.2 
   36900        9.225    5367.1164    4247427.7    681798.54    306910.64    988709.18    2603001.2 
   37000         9.25    5485.8672    4318628.2    715604.28    313701.22    1029305.5    2592643.2 
   37100        9.275    5617.1949    4393615.4    748863.04    321211.01      1070074    2582285.2 
   37200          9.3    5774.9374    4470404.9    781264.87    330231.28    1111496.1    2571927.2 
   37300        9.325    5977.8195    4545681.1    811066.36    341832.79    1152899.1    2561569.3 
   37400         9.35    6209.4431    4617996.6    839413.21    355077.84    1194491.1    2551211.3 
   37500        9.375    6530.7588    4690765.6    863172.42    373451.81    1236624.2    2540853.3 
   37600          9.4    6843.2239    4759486.5    887344.41    391319.66    1278664.1    2530495.3 
   37700        9.425      7250.56    4823904.8    907135.28    414612.58    1321747.9    2520137.4 
   37800         9.45    7678.3154      4885815    927605.92    439073.14    1366679.1    2509779.4 
   37900        9.475    8182.4584    4943311.9    945819.13    467901.81    1413720.9    2499421.4 
   38000          9.5    8665.1471    4997649.7    966245.39    495503.65      1461749    2489063.4 
   38100        9.525    9099.0151    5054301.4    989414.04    520313.76    1509727.8    2478705.4 
   38200         9.55    9450.8818    5118019.6    1016180.2    540434.73    1556614.9    2468347.5 
   38300        9.575    9747.9752    5188680.3    1045468.5    557423.58    1602892.1    2457989.5 
   38400          9.6     9939.103    5270003.7    1078804.8    568352.94    1647157.7    2447631.5 
   38500        9.625    10059.624    5362726.3    1114458.5    575244.75    1689703.3    2437273.5 
   38600         9.65     10095.17    5463320.3    1153543.7    577277.43    1730821.2    2426915.6 
   38700        9.675    10061.424    5565250.4    1196053.3    575347.69      1771401    2416557.6 
   38800          9.7    9965.0323    5672149.6    1240646.2    569835.67    1810481.9    2406199.6 
   38900        9.725    9836.7204    5779547.7      1286330    562498.35    1848828.3    2395841.6 
   39000         9.75    9704.3089    5881661.2    1331615.5    554926.59    1886542.1    2385483.6 
   39100        9.775    9577.7153    5976643.4    1375133.5    547687.52      1922821    2375125.7 
   39200          9.8     9529.835    6061112.5    1413195.7    544949.56    1958145.2    2364767.7 
   39300        9.825    9488.0349    6133244.8    1449414.9    542559.28    1991974.2    2354409.7 
   39400         9.85    9543.3651      6200831    1479346.9    545723.25    2025070.1    2344051.7 
   39500        9.875    9648.7129    6268619.9    1505591.7    551747.41    2057339.2    2333693.8 
   39600          9.9    9828.5079    6336407.5    1528024.9    562028.72    2090053.6    2323335.8 
   39700        9.925     10071.62    6409801.9    1548141.2    575930.74      2124072    2312977.8 
   39800         9.95    10395.606    6491946.1    1566807.6    594457.42    2161265.1    2302619.8 
   39900        9.975    10764.816    6581403.9      1586234    615570.14    2201804.1    2292261.9 
   40000           10    11124.914    6676724.4    1609887.4     636161.8    2246049.2    2281903.9 
   40100       10.025    11426.288    6775839.8    1638637.4    653395.44    2292032.9    2271545.9 
   40200        10.05    11548.558    6887187.5    1679561.9    660387.25    2339949.2    2261187.9 
   40300       10.075    11613.425    7006956.3    1727626.7    664096.57    2391723.3    2250829.9 
   40400         10.1    11642.928    7130332.2    1779855.8    665783.65    2445639.5      2240472 
   40500       10.125    11629.913    7251375.5    1835476.9     665039.4    2500516.3      2230114 
   40600        10.15    11541.114    7375707.3    1896372.1    659961.59    2556333.7      2219756 
   40700       10.175    11433.764    7505857.1    1957985.4    653822.95    2611808.4      2209398 
   40800         10.2    11355.289    7644348.5    2018021.7    649335.43    2667357.1    2199040.1 
   40900       10.225    11322.276    7795052.3    2076194.4    647447.65      2723642    2188682.1 
   41000        10.25     11317.24    7945634.1    2131768.1    647159.69    2778927.8    2178324.1 
   41100       10.275     11421.56    8090636.2    2181643.4    653125.07    2834768.5    2167966.1 
   41200         10.3    11593.765    8227885.2    2226522.5    662972.35    2889494.8    2157608.1 
   41300       10.325     11834.82    8359390.8    2267276.2    676756.71    2944032.9    2147250.2 
   41400        10.35    12141.135    8476583.9    2303404.4    694272.89    2997677.3    2136892.2 
   41500       10.375    12406.548    8581170.5    2339974.4    709450.14    3049424.5    2126534.2 
   41600         10.4    12593.632    8688876.5    2380294.1    720148.26    3100442.4    2116176.2 
   41700       10.425    12587.051    8811341.8    2429154.3    719771.97    3148926.3    2105818.3 
   41800        10.45    12463.608    8951785.1    2483993.3    712713.06    3196706.3    2095460.3 
   41900       10.475    12182.391    9113821.1    2545803.8    696632.07    3242435.9    2085102.3 
   42000         10.5    11730.085    9291149.4    2616030.9    670767.59    3286798.5    2074744.3 
   42100       10.525    11202.796    9471634.9    2689789.4    640615.39    3330404.8    2064386.3 
   42200        10.55    10574.502    9656073.7    2767326.5    604687.29    3372013.8    2054028.4 
   42300       10.575    9980.4213    9832786.8    2842001.5    570715.67    3412717.2    2043670.4 
   42400         10.6    9472.4483    9989172.8    2910042.7    541667.98    3451710.7    2033312.4 
   42500       10.625    9110.4114     10123462    2969129.8    520965.43    3490095.2    2022954.4 
   42600        10.65    8845.3566     10247896    3020743.6    505808.67    3526552.2    2012596.5 
   42700       10.675    8712.1052     10376202    3064268.6    498188.88    3562457.5    2002238.5 
   42800         10.7    8689.9663     10512182    3102132.5     496922.9    3599055.4    1991880.5 
   42900       10.725    8664.3843     10661149    3140914.4    495460.03    3636374.4    1981522.5 
   43000        10.75    8664.9799     10825163    3184723.9    495494.09      3680218    1971164.5 
   43100       10.775    8720.7937     11011835      3244563    498685.72    3743248.8    1960806.6 
   43200         10.8    8962.6332     11227061    3321092.3    512514.96    3833607.3    1950448.6 
   43300       10.825    9179.2309     11452114    3407426.4    524900.78    3932327.2    1940090.6 
   43400        10.85    9191.4008     11670967    3498946.3    525596.69      4024543    1929732.6 
   43500       10.875    9229.2584     11902158    3595996.4    527761.53      4123758    1919374.7 
   43600         10.9    9393.8025     12153587    3690039.7    537170.74    4227210.5    1909016.7 
   43700       10.925    9554.3166     12406075    3778988.8     546349.5    4325338.3    1898658.7 
   43800        10.95    9964.1941     12656565    3860594.8    569787.74    4430382.5    1888300.7 
   43900       10.975    10569.331     12903942    3934586.6    604391.62    4538978.3    1877942.8 
   44000           11    11323.964     13133920    3998335.9    647544.15    4645880.1    1867584.8 
   44100       11.025    12224.218     13352302    4058222.8    699023.86    4757246.7    1857226.8 
   44200        11.05    13001.074     13570598    4125687.8    743447.22      4869135    1846868.8 
   44300       11.075    13468.081     13812104    4207813.2    770152.35    4977965.6    1836510.8 
   44400         11.1     13659.56     14088834    4302172.1    781101.78    5083273.9    1826152.9 
   44500       11.125    13598.561     14383455    4406133.8    777613.62    5183747.4    1815794.9 
   44600        11.15    13297.078     14680548    4521382.8     760373.8    5281756.6    1805436.9 
   44700       11.175    12965.338     14976388    4635271.7    741403.75    5376675.4    1795078.9 
   44800         11.2    12719.546     15251805    4739778.5    727348.47    5467126.9      1784721 
   44900       11.225    12688.643     15499024    4830701.5    725581.34    5556282.8      1774363 
   45000        11.25    12883.791     15741733      4906838     736740.6    5643578.6      1764005 
   45100       11.275    13204.988     15992189    4975333.1    755107.73    5730440.8      1753647 
   45200         11.3    13727.776     16261298    5040510.5    785002.62    5825513.1      1743289 
   45300       11.325    14226.896     16554085    5119804.1    813544.06    5933348.1    1732931.1 
   45400        11.35    14470.036     16871482    5225646.6    827447.64    6053094.3    1722573.1 
   45500       11.375    14567.415     17209555    5346575.6    833016.11    6179591.8    1712215.1 
   45600         11.4    14514.142     17556435    5479265.5    829969.78    6309235.3    1701857.1 
   45700       11.425    14438.157     17887120    5613332.5    825624.73    6438957.2    1691499.2 
   45800        11.45    14370.634     18237751      5744460    821763.49    6566223.5    1681141.2 
   45900       11.475    14507.552     18598830      5864675    829592.95    6694267.9    1670783.2 
   46000         11.5    14903.641     18944720    5971109.4    852242.71    6823352.1    1660425.2 
   46100       11.525    15435.418     19279904    6067267.2     882651.6    6949918.8    1650067.2 
   46200        11.55    15853.438     19628657    6166597.1    906555.45    7073152.6    1639709.3 
   46300       11.575    15904.784     19974780    6282342.4    909491.62      7191834    1629351.3 
   46400         11.6    15480.527     20317805    6418560.1    885231.11    7303791.2    1618993.3 
   46500       11.625    14730.981     20699861    6569094.9     842369.4    7411464.3    1608635.3 
   46600        11.65    13800.642     21067598    6726265.7    789169.34    7515435.1    1598277.4 
   46700       11.675    12915.289     21432270    6877074.5    738541.73    7615616.3    1587919.4 
   46800         11.7    12362.473     21787426    7006955.1    706929.81    7713884.9    1577561.4 
   46900       11.725    12027.654     22123480    7122827.9    687783.68    7810611.6    1567203.4 
   47000        11.75    11981.366     22500839    7225636.4    685136.72    7910773.1    1556845.5 
   47100       11.775     12050.63     22924804    7336294.9    689097.51    8025392.4    1546487.5 
   47200         11.8    12213.275     23368737    7474238.4     698398.1    8172636.5    1536129.5 
   47300       11.825    12630.873     23815326    7633721.4    722277.85    8355999.2    1525771.5 
   47400        11.85    12825.224     24208566    7806460.6    733391.52    8539852.1    1515413.5 
   47500       11.875    12797.833     24587999    7986374.1    731825.19    8718199.3    1505055.6 
   47600         11.9     12991.66     25066603    8161475.7     742908.9    8904384.6    1494697.6 
   47700       11.925    13602.411     25601696    8317868.3    777833.83    9095702.1    1484339.6 
   47800        11.95    14567.027     26120863    8463531.8    832993.98    9296525.7    1473981.6 
   47900       11.975    15766.621     26603680      8603980    901590.99      9505571    1463623.7 
   48000           12    16606.458     27017871    8760833.2    949615.83      9710449    1453265.7 
   48100       12.025    16891.015     27504401    8939621.6    965887.75    9905509.4    1442907.7 
   48200        12.05    16735.065     28089361    9134397.6    956969.99     10091368    1432549.7 
   48300       12.075    16272.952     28641757    9341577.4    930544.77     10272122    1422191.7 
   48400         12.1    16155.996     29148254    9529090.1    923856.78     10452947    1411833.8 
   48500       12.125    16361.647     29587104    9694982.8    935616.66     10630599    1401475.8 
   48600        12.15    16872.991     30070243    9845154.7    964857.12     10810012    1391117.8 
   48700       12.175    17457.703     30673494     10001562    998292.97     10999855    1380759.8 
   48800         12.2    17855.484     31288380     10187374    1021039.5     11208414    1370401.9 
   48900       12.225    18046.311     31865951     10399071    1031951.7     11431023    1360043.9 
   49000        12.25    17981.695     32409233     10628816    1028256.7     11657073    1349685.9 
   49100       12.275    17919.569     33020140     10859925    1024704.1     11884630    1339327.9 
   49200         12.3    18232.932     33719939     11068363    1042623.3     12110986    1328969.9 
   49300       12.325    18782.721     34377448     11266055    1074062.2     12340117      1318612 
   49400        12.35    19401.334     34956999     11456852    1109436.7     12566289      1308254 
   49500       12.375     19468.94     35542186     11669051    1113302.6     12782354      1297896 
   49600         12.4    18783.502     36242230     11912798    1074106.9     12986905      1287538 
   49700       12.425    17637.329     36980672     12174525    1008564.6     13183090    1277180.1 
   49800        12.45    16654.089     37624051     12423017    952339.53     13375357    1266822.1 
   49900       12.475    16232.276     38227974     12642791    928218.74     13571010    1256464.1 
   50000         12.5    16275.153     38910139     12845306     930670.6     13775977    1246106.1 
Loop time of 523.858 on 24 procs for 50000 steps with 442392 atoms

Performance: 2.062 ns/day, 11.641 hours/ns, 95.446 timesteps/s
99.7% CPU use with 24 MPI tasks x 1 OpenMP threads

MPI task timing breakdown:
Section |  min time  |  avg time  |  max time  |%varavg| %total
---------------------------------------------------------------
Pair    | 246.19     | 262.32     | 278.07     |  48.9 | 50.08
Neigh   | 0.16003    | 0.18297    | 0.2041     |   3.0 |  0.03
Comm    | 55.139     | 58.942     | 61.774     |  25.6 | 11.25
Output  | 14.648     | 14.653     | 14.755     |   0.6 |  2.80
Modify  | 152.37     | 166.11     | 180.24     |  53.1 | 31.71
Other   |            | 21.65      |            |       |  4.13

Nlocal:        18433.0 ave       19190 max       17498 min
Histogram: 4 0 4 0 4 0 4 0 3 5
Nghost:        56715.4 ave       58252 max       54343 min
Histogram: 4 0 0 0 4 4 0 0 8 4
Neighs:         0.00000 ave           0 max           0 min
Histogram: 24 0 0 0 0 0 0 0 0 0

Total # of neighbors = 0
Ave neighs/atom = 0.0000000
Neighbor list builds = 955
Dangerous builds = 0


---------------------------------------------------------------------
      Device Time Info (average): 
---------------------------------------------------------------------
Data Transfer:   35.7407 s.
Neighbor copy:   0.0505 s.
Neighbor build:  5.7831 s.
Force calc:      156.2939 s.
Device Overhead: 67.5190 s.
Average split:   1.0000.
Lanes / atom:    4.
Vector width:    32.
Max Mem / Proc:  157.72 MB.
CPU Neighbor:    0.8565 s.
CPU Cast/Pack:   23.6235 s.
CPU Driver_Time: 1.0108 s.
CPU Idle_Time:   75.8223 s.
---------------------------------------------------------------------

Total wall time: 0:08:53
