LAMMPS (29 Sep 2021)
  using 1 OpenMP thread(s) per MPI task
Reading data file ...
  orthogonal box = (-0.55769526 -0.47818063 0.0000000) to (101.85676 101.77725 528.38451)
  3 by 2 by 16 MPI processor grid
  reading atoms ...
  434962 atoms
  reading velocities ...
  434962 velocities
  read_data CPU = 4.446 seconds
217465 atoms in group g_left
217497 atoms in group g_right

CITE-CITE-CITE-CITE-CITE-CITE-CITE-CITE-CITE-CITE-CITE-CITE-CITE

Your simulation uses code contributions which should be cited:
- @article{cjiang2012
The log file lists these citations in BibTeX format.

CITE-CITE-CITE-CITE-CITE-CITE-CITE-CITE-CITE-CITE-CITE-CITE-CITE

Neighbor list info ...
  update every 1 steps, delay 10 steps, check yes
  max neighbors/atom: 2000, page size: 100000
  master list distance cutoff = 8.28721
  ghost atom cutoff = 8.28721
  binsize = 4.143605, bins = 25 25 128
  3 neighbor lists, perpetual/occasional/extra = 3 0 0
  (1) pair eam/alloy, perpetual, skip from (3)
      attributes: half, newton on
      pair build: skip
      stencil: none
      bin: none
  (2) pair edip/multi, perpetual
      attributes: full, newton on
      pair build: full/bin/atomonly
      stencil: full/bin/3d
      bin: standard
  (3) neighbor class addition, perpetual, half/full from (2)
      attributes: half, newton on
      pair build: halffull/newton
      stencil: none
      bin: none
Setting up Verlet run ...
  Unit style    : metal
  Current step  : 0
  Time step     : 0.00025
Per MPI rank memory allocation (min/avg/max) = 8.763 | 12.51 | 14.56 Mbytes
Step Time Temp Press PotEng KinEng TotEng Volume 
       0            0    12866.096    136322.65   -1918186.5     723372.1   -1194814.4    5533471.8 
     100        0.025    12864.878    136649.63   -1918179.8    723303.63   -1194876.2    5520381.3 
     200         0.05    12864.648    136998.39   -1918180.3     723290.7   -1194889.6    5507290.8 
     300        0.075    12864.302    137241.45   -1918165.4    723271.24   -1194894.1    5494200.2 
     400          0.1    12864.601     137630.6     -1918170    723288.01     -1194882    5481109.7 
     500        0.125    12864.257    137906.99   -1918178.1    723268.67   -1194909.5    5468019.1 
     600         0.15    12864.087    138235.79   -1918178.7    723259.12   -1194919.5    5454928.6 
     700        0.175    12863.914    138627.98   -1918177.4    723249.38     -1194928    5441838.1 
     800          0.2    12863.761    139052.74   -1918163.3     723240.8   -1194922.5    5428747.5 
     900        0.225    12863.522    139181.52   -1918160.8    723227.38   -1194933.5      5415657 
    1000         0.25    12863.879    139429.27   -1918197.6    723247.44   -1194950.2    5402566.4 
    1100        0.275    12864.258     139713.5   -1918200.2    723268.74   -1194931.5    5389475.9 
    1200          0.3    12863.278    140238.93   -1918147.2    723213.65   -1194933.5    5376385.3 
    1300        0.325    12863.843    140536.75   -1918173.8    723245.39   -1194928.4    5363294.8 
    1400         0.35    12863.971    140979.66   -1918183.8    723252.59   -1194931.2    5350204.3 
    1500        0.375     12863.66    141223.72   -1918177.4    723235.14   -1194942.3    5337113.7 
    1600          0.4    12863.893    141550.93   -1918177.5    723248.23   -1194929.3    5324023.2 
    1700        0.425     12863.67     141741.6   -1918166.8    723235.69   -1194931.1    5310932.6 
    1800         0.45    12863.814    142358.55   -1918184.9    723243.78   -1194941.1    5297842.1 
    1900        0.475    12863.859    142828.24   -1918209.1     723246.3   -1194962.8    5284751.5 
    2000          0.5    12865.927    142646.15   -1918336.5    723362.56     -1194974      5271661 
    2100        0.525    12863.302    144099.99   -1918179.1    723214.99   -1194964.1    5258570.5 
    2200         0.55    12819.499    150680.87     -1915743    720752.23   -1194990.7    5245479.9 
    2300        0.575    12743.118    161538.16   -1911475.2     716457.9   -1195017.3    5232389.4 
    2400          0.6    12671.208    171471.09   -1907432.5    712414.85   -1195017.7    5219298.8 
    2500        0.625    12593.414    181474.45   -1903054.2    708041.03   -1195013.2    5206208.3 
    2600         0.65    12519.143    187170.39   -1898872.1    703865.33   -1195006.8    5193117.7 
    2700        0.675    12446.802     190880.6   -1894811.3    699798.07   -1195013.2    5180027.2 
    2800          0.7    12370.622    197163.36   -1890528.3    695514.97   -1195013.4    5166936.7 
    2900        0.725    12286.523    203680.96   -1885788.3    690786.66   -1195001.6    5153846.1 
    3000         0.75    12200.437    209851.52   -1880916.6    685946.67   -1194969.9    5140755.6 
    3100        0.775    12116.966    216804.73   -1876213.1    681253.65   -1194959.5      5127665 
    3200          0.8    12030.218    225083.98   -1871353.3    676376.39   -1194976.9    5114574.5 
    3300        0.825    11946.073    232666.63   -1866626.6    671645.54   -1194981.1      5101484 
    3400         0.85    11855.831    239946.54   -1861555.2    666571.85   -1194983.4    5088393.4 
    3500        0.875    11765.158    247651.41   -1856451.3     661473.9   -1194977.5    5075302.9 
    3600          0.9    11672.006    255564.55   -1851228.9    656236.62   -1194992.3    5062212.3 
    3700        0.925    11581.955     263037.9   -1846183.4    651173.65   -1195009.7    5049121.8 
    3800         0.95    11489.709    270743.81   -1840992.6    645987.33   -1195005.3    5036031.2 
    3900        0.975    11397.725    278592.15   -1835817.8    640815.67   -1195002.1    5022940.7 
    4000            1    11300.895    286804.25   -1830374.5    635371.62   -1195002.9    5009850.2 
    4100        1.025    11208.495    294577.01   -1825169.6    630176.57     -1194993    4996759.6 
    4200         1.05    11113.519    302892.47   -1819822.3    624836.72   -1194985.5    4983669.1 
    4300        1.075    11020.139    310963.15   -1814566.2    619586.62   -1194979.6    4970578.5 
    4400          1.1    10924.146    319429.48   -1809160.7    614189.62   -1194971.1      4957488 
    4500        1.125    10830.374    327205.94   -1803862.8    608917.41   -1194945.3    4944397.4 
    4600         1.15    10732.902    335567.14   -1798354.3    603437.27     -1194917    4931306.9 
    4700        1.175    10638.108    343527.33     -1793015    598107.64   -1194907.3    4918216.4 
    4800          1.2    10543.107    351754.21   -1787670.6    592766.38   -1194904.2    4905125.8 
    4900        1.225    10444.811    360008.88   -1782153.6     587239.9   -1194913.7    4892035.3 
    5000         1.25     10349.62    368461.12   -1776799.2    581887.92   -1194911.3    4878944.7 
    5100        1.275    10250.686    376620.81   -1771229.2    576325.58   -1194903.6    4865854.2 
    5200          1.3    10151.912    384954.13   -1765669.8    570772.21   -1194897.6    4852763.6 
    5300        1.325    10054.642    392543.33     -1760206    565303.38   -1194902.6    4839673.1 
    5400         1.35    9959.4058    400935.53   -1754857.7    559948.89   -1194908.8    4826582.6 
    5500        1.375    9858.5205    409553.36   -1749191.1     554276.8   -1194914.3      4813492 
    5600          1.4    9762.5959    417950.23   -1743798.3    548883.62   -1194914.7    4800401.5 
    5700        1.425     9660.389    427067.42   -1738062.4    543137.23   -1194925.1    4787310.9 
    5800         1.45    9602.2834     432595.8   -1734782.4    539870.35   -1194912.1    4774220.4 
    5900        1.475    9631.6384    433674.13   -1736415.3    541520.78   -1194894.6    4761129.8 
    6000          1.5    9579.7048    432428.67   -1733478.5    538600.91   -1194877.6    4748039.3 
    6100        1.525     9550.329    431819.83   -1731837.3    536949.31     -1194888    4734948.8 
    6200         1.55     9571.135    434597.14   -1733013.4    538119.09   -1194894.3    4721858.2 
    6300        1.575    9513.7827    437760.15   -1729793.6    534894.56     -1194899    4708767.7 
    6400          1.6    9532.6526    439011.54   -1730859.2    535955.49   -1194903.7    4695677.1 
    6500        1.625    9528.4575    439506.43   -1730615.3    535719.63   -1194895.7    4682586.6 
    6600         1.65    9495.5774    440037.52   -1728740.1       533871   -1194869.1    4669496.1 
    6700        1.675    9525.1261    441311.71   -1730390.6    535532.33   -1194858.3    4656405.5 
    6800          1.7    9487.0387    442859.26   -1728245.9    533390.93     -1194855      4643315 
    6900        1.725    9507.7219    443086.88   -1729411.4    534553.81   -1194857.6    4630224.4 
    7000         1.75    9448.6824    445682.78   -1726084.3    531234.43   -1194849.9    4617133.9 
    7100        1.775    9394.0676    450498.26   -1723003.6    528163.81   -1194839.8    4604043.3 
    7200          1.8    9296.1571    452363.94   -1717484.7    522658.97   -1194825.7    4590952.8 
    7300        1.825    9251.9015    456899.25   -1714993.8    520170.79     -1194823    4577862.3 
    7400         1.85    9157.9742    462213.01     -1709742     514889.9   -1194852.1    4564771.7 
    7500        1.875    9087.8882    464790.92   -1705827.2    510949.45   -1194877.8    4551681.2 
    7600          1.9    8982.7686    467301.93   -1699918.7     505039.3   -1194879.4    4538590.6 
    7700        1.925    8916.4092    472833.03   -1696180.4    501308.36     -1194872    4525500.1 
    7800         1.95    8822.3623    477580.57   -1690890.1    496020.75   -1194869.3    4512409.5 
    7900        1.975    8726.5514    481598.79     -1685508    490633.96     -1194874      4499319 
    8000            2    8629.4347    486961.02   -1680051.1    485173.76   -1194877.3    4486228.5 
    8100        2.025    8521.4316    493669.89   -1673967.5    479101.49     -1194866    4473137.9 
    8200         2.05    8413.7352    500115.96   -1667916.8    473046.46   -1194870.3    4460047.4 
    8300        2.075    8293.2733    507575.63   -1661157.8    466273.71   -1194884.1    4446956.8 
    8400          2.1    8171.7247    516824.11   -1654329.3    459439.88   -1194889.4    4433866.3 
    8500        2.125    8043.1242    525786.64   -1647093.6    452209.55   -1194884.1    4420775.7 
    8600         2.15    7913.3614    537063.57   -1639768.2    444913.89   -1194854.3    4407685.2 
    8700        2.175    7780.6637    547342.34   -1632290.2     437453.2     -1194837    4394594.7 
    8800          2.2    7647.8056    557917.82     -1624816    429983.51   -1194832.4    4381504.1 
    8900        2.225    7511.2635    568735.56   -1617148.9    422306.69   -1194842.3    4368413.6 
    9000         2.25    7373.6909     580961.1   -1609419.6    414571.92   -1194847.7      4355323 
    9100        2.275    7241.5973    592472.32   -1601996.9    407145.21   -1194851.7    4342232.5 
    9200          2.3    7117.2268    605934.35   -1595009.5    400152.71   -1194856.8    4329141.9 
    9300        2.325     6996.675    617410.07   -1588219.6    393374.91   -1194844.7    4316051.4 
    9400         2.35    6884.0564    628558.06     -1581883    387043.14   -1194839.8    4302960.9 
    9500        2.375    6779.0878    639521.89   -1575987.6    381141.48   -1194846.2    4289870.3 
    9600          2.4    6675.7523    650604.95   -1570187.4    375331.64   -1194855.8    4276779.8 
    9700        2.425    6583.1734    660724.71   -1564968.3    370126.56   -1194841.7    4263689.2 
    9800         2.45    6496.6081    669848.29   -1560090.3    365259.59   -1194830.7    4250598.7 
    9900        2.475    6417.8912       679670   -1555670.5    360833.88   -1194836.7    4237508.2 
   10000          2.5    6342.5333    688815.76   -1551442.9    356597.02   -1194845.9    4224417.6 
   10100        2.525    6270.4005     698312.5   -1547396.3    352541.49   -1194854.8    4211327.1 
   10200         2.55    6192.9674    708583.44   -1543045.1    348187.96   -1194857.1    4198236.5 
   10300        2.575     6143.049    717586.55   -1540230.9    345381.39   -1194849.5      4185146 
   10400          2.6    6174.3694    722037.06   -1541993.3    347142.32     -1194851    4172055.4 
   10500        2.625    6174.2274    724670.82   -1541983.5    347134.34   -1194849.1    4158964.9 
   10600         2.65    6176.2688    728683.91   -1542100.6    347249.11   -1194851.5    4145874.4 
   10700        2.675    6217.2697    731786.75   -1544418.7    349554.31   -1194864.4    4132783.8 
   10800          2.7    6188.1239    737730.12   -1542791.6    347915.65     -1194876    4119693.3 
   10900        2.725    6223.0161    740311.68   -1544757.7    349877.39   -1194880.3    4106602.7 
   11000         2.75    6234.9232    743368.18   -1545418.9    350546.85   -1194872.1    4093512.2 
   11100        2.775    6237.2425    747216.25   -1545538.3    350677.24     -1194861    4080421.6 
   11200          2.8    6274.6856    749412.92   -1547619.1    352782.41   -1194836.7    4067331.1 
   11300        2.825    6260.1428    752394.81     -1546791    351964.77   -1194826.3    4054240.6 
   11400         2.85    6304.4118    754900.99   -1549290.9    354453.71   -1194837.2      4041150 
   11500        2.875    6280.1281     757618.2   -1547938.9    353088.41   -1194850.5    4028059.5 
   11600          2.9    6232.2373    766414.67   -1545260.2    350395.84   -1194864.4    4014968.9 
   11700        2.925    6150.5573    773941.26   -1540666.4    345803.53   -1194862.9    4001878.4 
   11800         2.95    6054.8725    781429.71   -1535281.9    340423.83   -1194858.1    3988787.8 
   11900        2.975    5977.9812    790880.96   -1530931.6    336100.76   -1194830.8    3975697.3 
   12000            3    5872.7617    799196.63   -1525021.2    330184.99   -1194836.2    3962606.8 
   12100        3.025    5751.1096    807497.27     -1518198    323345.34   -1194852.6    3949516.2 
   12200         3.05    5630.3308     819619.7   -1511412.9    316554.78   -1194858.1    3936425.7 
   12300        3.075    5498.4955    831702.65   -1503998.2    309142.58   -1194855.7    3923335.1 
   12400          3.1    5353.1621    843653.81   -1495829.5    300971.49     -1194858    3910244.6 
   12500        3.125    5210.9937    857545.04   -1487807.3    292978.34   -1194828.9      3897154 
   12600         3.15    5060.0722    873038.61   -1479316.8    284493.06   -1194823.7    3884063.5 
   12700        3.175    4917.2709    887374.75   -1471281.8    276464.32   -1194817.4      3870973 
   12800          3.2     4769.368    903722.57   -1462961.3    268148.76   -1194812.5    3857882.4 
   12900        3.225    4630.9789    920641.88   -1455184.7    260368.09   -1194816.6    3844791.9 
   13000         3.25    4496.2006    936579.38   -1447599.4    252790.43     -1194809    3831701.3 
   13100        3.275    4369.9625    952279.51   -1440481.7    245692.93   -1194788.7    3818610.8 
   13200          3.3    4253.4274    967502.26   -1433927.6    239140.97   -1194786.6    3805520.3 
   13300        3.325    4150.6983    982797.09   -1428169.8    233365.22   -1194804.6    3792429.7 
   13400         3.35    4052.5591    996742.88   -1422663.8    227847.52   -1194816.2    3779339.2 
   13500        3.375    3969.8124    1009081.9   -1418010.1    223195.25   -1194814.8    3766248.6 
   13600          3.4    3886.3028    1021419.7   -1413303.4    218500.07   -1194803.4    3753158.1 
   13700        3.425    3815.2493    1034110.5   -1409313.1    214505.23   -1194807.9    3740067.5 
   13800         3.45    3755.0792    1045460.6   -1405941.7    211122.28   -1194819.4      3726977 
   13900        3.475    3694.9549    1057296.8   -1402548.1     207741.9   -1194806.2    3713886.5 
   14000          3.5     3638.097    1069798.9   -1399328.8    204545.17   -1194783.7    3700795.9 
   14100        3.525    3582.8973    1080309.8   -1396190.9    201441.67   -1194749.2    3687705.4 
   14200         3.55    3521.8579    1091695.4   -1392751.7    198009.85   -1194741.8    3674614.8 
   14300        3.575     3470.238    1102830.3   -1389867.1    195107.61   -1194759.4    3661524.3 
   14400          3.6    3417.9381    1114179.9   -1386941.8    192167.15   -1194774.6    3648433.7 
   14500        3.625    3363.8204    1126125.5   -1383910.6    189124.48   -1194786.1    3635343.2 
   14600         3.65    3296.0728    1137714.3   -1380119.8    185315.51   -1194804.3    3622252.7 
   14700        3.675    3231.5964    1149757.3   -1376507.2    181690.44   -1194816.8    3609162.1 
   14800          3.7    3152.5062    1161873.8     -1372057    177243.74   -1194813.3    3596071.6 
   14900        3.725    3132.8481    1168966.4   -1370956.7     176138.5   -1194818.2      3582981 
   15000         3.75    3148.1711    1169626.6     -1371830    177000.01     -1194830    3569890.5 
   15100        3.775    3135.6043    1165998.8   -1371127.2    176293.46   -1194833.8    3556799.9 
   15200          3.8    3132.9628    1164654.4   -1370934.2    176144.95   -1194789.2    3543709.4 
   15300        3.825    3129.4043    1165926.3   -1370552.1    175944.88   -1194607.2    3530618.9 
   15400         3.85    3094.8113    1165502.8   -1368299.1    173999.95   -1194299.2    3517528.3 
   15500        3.875    3139.0373      1170415   -1360100.1    176486.48   -1183613.6    3504437.8 
   15600          3.9    3299.5452      1179001   -1349492.7    185510.73   -1163981.9    3491347.2 
   15700        3.925     3285.319    1185811.1   -1336034.1    184710.89   -1151323.2    3478256.7 
   15800         3.95    3315.8956    1204048.5   -1323277.2       186430   -1136847.2    3465166.1 
   15900        3.975    3334.0504    1229122.7     -1303214    187450.72   -1115763.3    3452075.6 
   16000            4    3348.3745    1252252.7   -1285152.4    188256.07   -1096896.3    3438985.1 
   16100        4.025    3366.5464    1284220.1   -1261936.4    189277.75   -1072658.7    3425894.5 
   16200         4.05    3606.3686    1321521.9   -1241748.7     202761.3   -1038987.4      3412804 
   16300        4.075    3653.6515    1352042.4   -1216656.7    205419.69     -1011237    3399713.4 
   16400          4.1    3799.0927    1386382.9   -1196326.3    213596.85   -982729.41    3386622.9 
   16500        4.125    4025.6247    1421558.4   -1173532.3    226333.19    -947199.1    3373532.4 
   16600         4.15    4226.4259    1455139.9   -1153358.9    237622.86   -915736.09    3360441.8 
   16700        4.175     4397.645    1487615.7   -1133481.2    247249.33   -886231.86    3347351.3 
   16800          4.2     4622.128    1519955.2   -1114284.6    259870.47    -854414.1    3334260.7 
   16900        4.225     4877.668    1554597.7   -1096660.2    274237.72   -822422.52    3321170.2 
   17000         4.25    5091.2631    1588189.2   -1079409.9     286246.7   -793163.23    3308079.6 
   17100        4.275    5299.5456    1620691.8   -1062031.6       297957   -764074.63    3294989.1 
   17200          4.3    5525.6746      1655954   -1045217.9    310670.68   -734547.25    3281898.6 
   17300        4.325    5735.6703    1692574.2   -1028004.3    322477.29      -705527      3268808 
   17400         4.35    5881.4774    1729907.6   -1008641.6    330675.02   -677966.57    3255717.5 
   17500        4.375    5983.4021    1767579.6   -986604.95    336405.55    -650199.4    3242626.9 
   17600          4.4    6090.4618    1807369.5   -964746.23    342424.78   -622321.46    3229536.4 
   17700        4.425    6189.1064    1847291.4   -943126.94    347970.88   -595156.05    3216445.8 
   17800         4.45    6339.8874    1883174.1   -924287.65    356448.26   -567839.39    3203355.3 
   17900        4.475    6623.9115    1911102.8   -913049.51    372416.98   -540632.52    3190264.8 
   18000          4.5    7007.5794    1926799.4   -907090.03    393987.99   -513102.04    3177174.2 
   18100        4.525    7356.3585    1939814.2   -899119.45    413597.44   -485522.01    3164083.7 
   18200         4.55    7731.7103    1956730.1   -892050.53    434700.89   -457349.64    3150993.1 
   18300        4.575    8060.9697    1980524.8   -881430.49    453212.88    -428217.6    3137902.6 
   18400          4.6    8285.1974    2016451.9   -864401.14    465819.67   -398581.48      3124812 
   18500        4.625    8482.5649    2056966.4   -844255.52    476916.28   -367339.24    3111721.5 
   18600         4.65    8654.3343    2093017.5   -821133.37     486573.7   -334559.67      3098631 
   18700        4.675    8847.3203    2137819.9   -797554.82    497423.97   -300130.85    3085540.4 
   18800          4.7    9041.6189      2185085   -773813.82    508348.04   -265465.78    3072449.9 
   18900        4.725    9238.3478    2229897.3   -749650.43    519408.75   -230241.68    3059359.3 
   19000         4.75    9462.6235    2277196.4    -727732.9    532018.24   -195714.66    3046268.8 
   19100        4.775    9676.1795      2323651   -706515.38    544025.02   -162490.36    3033178.2 
   19200          4.8    9862.6105      2370052   -686121.16    554506.75   -131614.41    3020087.7 
   19300        4.825     9987.009    2417178.8   -664313.61    561500.83   -102812.78    3006997.2 
   19400         4.85    10047.768    2463347.7    -642069.9    564916.87   -77153.035    2993906.6 
   19500        4.875    10058.309    2512808.7   -619243.44    565509.55   -53733.885    2980816.1 
   19600          4.9    10029.225    2558434.4   -596458.72    563874.33   -32584.386    2967725.5 
   19700        4.925    10020.772    2602335.6   -576251.25     563399.1   -12852.145      2954635 
   19800         4.95    10048.919    2643097.3   -558563.78    564981.57    6417.7904    2941544.5 
   19900        4.975    10112.343    2678071.5   -542913.71    568547.52    25633.806    2928453.9 
   20000            5    10232.942    2712654.1   -529187.98    575327.92    46139.944    2915363.4 
   20100        5.025     10442.41    2741817.7   -517939.59    587104.89    69165.291    2902272.8 
   20200         5.05    10748.974    2770598.5   -507788.23    604340.87    96552.643    2889182.3 
   20300        5.075    11138.477    2797964.8   -497880.63    626239.92    128359.29    2876091.7 
   20400          5.1    11608.407    2827282.4   -489213.62    652660.86    163447.23    2863001.2 
   20500        5.125    12075.053    2861504.2    -479442.4     678897.2    199454.79    2849910.7 
   20600         5.15    12561.458    2897932.3   -469770.18    706244.41    236474.23    2836820.1 
   20700        5.175    13076.276    2939397.4   -460352.45    735189.07    274836.62    2823729.6 
   20800          5.2    13614.304    2982325.3   -451037.18    765438.65    314401.47      2810639 
   20900        5.225    14133.247    3032202.2   -440014.54    794615.26    354600.72    2797548.5 
   21000         5.25    14552.917    3084044.3   -424549.22    818210.41     393661.2    2784457.9 
   21100        5.275    14932.364    3135503.8   -406850.21     839544.1    432693.89    2771367.4 
   21200          5.3    15283.099    3188716.2   -387682.48    859263.55    471581.08    2758276.9 
   21300        5.325    15571.409    3241249.2   -366173.35     875473.2    509299.85    2745186.3 
   21400         5.35    15829.693    3295063.1   -342903.02    889994.75    547091.73    2732095.8 
   21500        5.375    16046.799      3351607   -318488.16    902201.16       583713    2719005.2 
   21600          5.4    16246.468    3408420.2   -293221.79    913427.13    620205.34    2705914.7 
   21700        5.425    16463.759      3462037   -269216.28    925643.93    656427.65    2692824.1 
   21800         5.45    16685.794    3513928.3   -245539.62    938127.45    692587.83    2679733.6 
   21900        5.475    16959.671    3567613.5   -225392.19    953525.67    728133.48    2666643.1 
   22000          5.5    17237.312    3621807.7   -205131.47    969135.51    764004.05    2653552.5 
   22100        5.525    17530.999    3677649.5   -185989.57    985647.51    799657.94      2640462 
   22200         5.55    17812.102    3735186.7   -166097.36      1001452    835354.62    2627371.4 
   22300        5.575    18100.509    3796365.7   -147489.99    1017667.1    870177.14    2614280.9 
   22400          5.6    18366.935      3866507   -127828.64    1032646.4    904817.79    2601190.3 
   22500        5.625    18561.003      3947238   -104890.15    1043557.5    938667.37    2588099.8 
   22600         5.65    18724.675    4038143.3   -81241.967    1052759.7    971517.71    2575009.3 
   22700        5.675    18801.442    4126697.3   -54061.058    1057075.8    1003014.7    2561918.7 
   22800          5.7    18748.638    4212211.5   -21665.207    1054106.9    1032441.7    2548828.2 
   22900        5.725    18634.347    4296782.2    13121.305    1047681.2    1060802.5    2535737.6 
   23000         5.75    18420.931    4392234.3    51721.927    1035682.3    1087404.2    2522647.1 
   23100        5.775    18154.368    4494149.3    91827.015    1020695.2    1112522.3    2509556.6 
   23200          5.8     17802.67    4593997.4    134487.04    1000921.7    1135408.7      2496466 
   23300        5.825     17436.05    4687522.7    176902.02    980309.15    1157211.2    2483375.5 
   23400         5.85    17023.884    4781746.3    220676.98    957135.93    1177812.9    2470284.9 
   23500        5.875    16590.045    4874488.9    264505.69     932744.1    1197249.8    2457194.4 
   23600          5.9     16139.06    4969599.6    308311.61    907388.31    1215699.9    2444103.8 
   23700        5.925    15633.238    5067189.8    353859.02    878949.42    1232808.4    2431013.3 
   23800         5.95    15103.937    5159311.3    400406.75    849190.47    1249597.2    2417922.8 
   23900        5.975    14572.817    5252609.3    446360.69    819329.24    1265689.9    2404832.2 
   24000            6     14081.76    5341582.1    489730.51    791720.52      1281451    2391741.7 
   24100        6.025    13583.894    5437048.9    533254.54    763728.91    1296983.4    2378651.1 
   24200         6.05    13099.138    5535989.2    575974.37    736474.41    1312448.8    2365560.6 
   24300        6.075    12618.118    5640829.5    618355.04       709430      1327785      2352470 
   24400          6.1    12107.897    5747283.7    663277.92    680743.78    1344021.7    2339379.5 
   24500        6.125    11596.554    5859196.5    709487.93    651994.48    1361482.4      2326289 
   24600         6.15    11139.938      5967449     754494.9    626322.08      1380817    2313198.4 
   24700        6.175    10744.238    6070825.2    798734.53    604074.58    1402809.1    2300107.9 
   24800          6.2        10368    6177558.2    844952.98    582921.35    1427874.3    2287017.3 
   24900        6.225    10110.436    6287141.3    887018.66    568440.28    1455458.9    2273926.8 
   25000         6.25    9938.4695    6392397.7    926351.66    558771.78    1485123.4    2260836.2 
   25100        6.275     9888.165    6494416.4    960620.12    555943.51    1516563.6    2247745.7 
   25200          6.3    9892.8721      6599504    993498.49    556208.16    1549706.6    2234655.2 
   25300        6.325    9982.2377      6708439    1023771.5    561232.56    1585004.1    2221564.6 
   25400         6.35    10076.521    6824095.7      1055524    566533.46    1622057.4    2208474.1 
   25500        6.375    10235.699    6944260.7    1084750.8    575482.93    1660233.7    2195383.5 
   25600          6.4    10336.919    7064094.4    1118004.9    581173.83    1699178.7      2182293 
   25700        6.425    10361.964    7193430.7    1156216.2    582581.96    1738798.2    2169202.4 
   25800         6.45     10336.11      7331488    1198021.7    581128.36    1779150.1    2156111.9 
   25900        6.475    10198.824    7472642.6    1245950.8    573409.75    1819360.5    2143021.4 
   26000          6.5    10037.544    7616915.6    1296770.4    564342.04    1861112.5    2129930.8 
   26100        6.525    9892.2466    7766641.6    1347675.9    556172.99    1903848.9    2116840.3 
   26200         6.55    9792.9858    7912282.3    1399218.4    550592.24    1949810.7    2103749.7 
   26300        6.575    9797.2986    8058608.3    1453705.2    550834.71      2004540    2090659.2 
   26400          6.6    9950.3608    8221276.6    1518906.5    559440.35    2078346.9    2077568.7 
   26500        6.625    10380.435    8418188.9    1593698.2    583620.45    2177318.7    2064478.1 
   26600         6.65    10860.244    8633276.2    1674502.8     610596.8    2285099.6    2051387.6 
   26700        6.675    11319.922    8854548.7    1758358.7    636441.35    2394800.1      2038297 
   26800          6.7    11805.655    9087291.1      1845168    663750.77    2508918.7    2025206.5 
   26900        6.725    12207.345      9327117    1938005.4    686335.04    2624340.4    2012115.9 
   27000         6.75    12539.634    9573013.4    2033838.3    705017.35    2738855.6    1999025.4 
   27100        6.775    12879.936    9820080.2      2131359    724150.23    2855509.2    1985934.9 
   27200          6.8    13369.642     10059343    2224015.1    751682.99    2975698.1    1972844.3 
   27300        6.825    13925.161     10312582    2317568.2    782916.04    3100484.2    1959753.8 
   27400         6.85    14422.211     10579738    2417662.5    810861.74    3228524.2    1946663.2 
   27500        6.875    14953.774     10863807    2516722.5    840747.85    3357470.4    1933572.7 
   27600          6.9    15515.167     11150919    2613685.3    872311.11    3485996.4    1920482.1 
   27700        6.925    16091.975     11434185    2707591.7    904741.05    3612332.8    1907391.6 
   27800         6.95    16609.102     11720785    2800393.4    933815.55    3734208.9    1894301.1 
   27900        6.975    17167.469     12005820    2887270.5    965208.68    3852479.2    1881210.5 
   28000            7    17902.014     12277232    2964637.7    1006507.1    3971144.8      1868120 
   28100        7.025    18874.065     12556683    3034043.7    1061158.8    4095202.6    1855029.4 
   28200         7.05     19917.25     12856290    3105824.4      1119810    4225634.4    1841938.9 
   28300        7.075    21111.752     13172845    3173575.2    1186968.6    4360543.7    1828848.3 
   28400          7.1    22238.861     13487942    3245195.2    1250338.2    4495533.4    1815757.8 
   28500        7.125    23279.549     13809389    3321864.6    1308848.9    4630713.5    1802667.3 
   28600         7.15    24143.588     14145269    3407082.6    1357427.9    4764510.5    1789576.7 
   28700        7.175    24819.279     14504728    3501415.9    1395417.4    4896833.2    1776486.2 
   28800          7.2    25433.384     14920404    3599842.7    1429944.3      5029787    1763395.6 
