LAMMPS (29 Sep 2021)
  using 1 OpenMP thread(s) per MPI task
Reading data file ...
  orthogonal box = (-0.72602232 -0.72907951 0.0000000) to (101.94341 101.94647 530.53600)
  2 by 2 by 6 MPI processor grid
  reading atoms ...
  425652 atoms
  reading velocities ...
  425652 velocities
  read_data CPU = 5.207 seconds
213003 atoms in group g_left
212649 atoms in group g_right

CITE-CITE-CITE-CITE-CITE-CITE-CITE-CITE-CITE-CITE-CITE-CITE-CITE

Your simulation uses code contributions which should be cited:
- GPU package (short-range, long-range and three-body potentials):
The log file lists these citations in BibTeX format.

CITE-CITE-CITE-CITE-CITE-CITE-CITE-CITE-CITE-CITE-CITE-CITE-CITE


--------------------------------------------------------------------------
- Using acceleration for eam/alloy:
-  with 12 proc(s) per device.
-  Horizontal vector operations: ENABLED
-  Shared memory system: No
--------------------------------------------------------------------------
Device 0: Tesla V100-SXM2-32GB, 80 CUs, 28/32 GB, 1.5 GHZ (Mixed Precision)
Device 1: Tesla V100-SXM2-32GB, 80 CUs, 1.5 GHZ (Mixed Precision)
--------------------------------------------------------------------------

Initializing Device and compiling on process 0...Done.
Initializing Devices 0-1 on core 0...Done.
Initializing Devices 0-1 on core 1...Done.
Initializing Devices 0-1 on core 2...Done.
Initializing Devices 0-1 on core 3...Done.
Initializing Devices 0-1 on core 4...Done.
Initializing Devices 0-1 on core 5...Done.
Initializing Devices 0-1 on core 6...Done.
Initializing Devices 0-1 on core 7...Done.
Initializing Devices 0-1 on core 8...Done.
Initializing Devices 0-1 on core 9...Done.
Initializing Devices 0-1 on core 10...Done.
Initializing Devices 0-1 on core 11...Done.

Setting up Verlet run ...
  Unit style    : metal
  Current step  : 0
  Time step     : 0.00025
Per MPI rank memory allocation (min/avg/max) = 8.281 | 10.12 | 11.06 Mbytes
Step Time Temp Press PotEng KinEng TotEng Volume 
       0            0    4902.3219    48320.856   -1769098.6    269724.33   -1499374.3    5592719.4 
     100        0.025    4902.3548    48361.033   -1769129.7    269726.14   -1499403.6    5584813.2 
     200         0.05    4902.2669    48422.969     -1769117     269721.3   -1499395.7    5576906.9 
     300        0.075    4901.5275    48489.648   -1769073.6    269680.62     -1499393    5569000.7 
     400          0.1    4902.2214    48543.122   -1769113.7     269718.8   -1499394.9    5561094.5 
     500        0.125    4902.1065    48620.984   -1769104.6    269712.48   -1499392.1    5553188.2 
     600         0.15     4902.177    48680.929   -1769112.9    269716.36   -1499396.6      5545282 
     700        0.175    4902.1584    48745.915   -1769105.5    269715.34   -1499390.2    5537375.8 
     800          0.2    4902.1318    48805.667   -1769114.7    269713.87   -1499400.8    5529469.5 
     900        0.225    4901.8264    48870.871   -1769098.8    269697.07   -1499401.7    5521563.3 
    1000         0.25    4901.6375    48935.779   -1769093.3    269686.68   -1499406.6    5513657.1 
    1100        0.275    4902.1753    49003.412   -1769122.1    269716.27   -1499405.8    5505750.9 
    1200          0.3    4901.5354     49070.53   -1769093.6    269681.06   -1499412.5    5497844.6 
    1300        0.325     4901.875    49126.283   -1769120.8    269699.74     -1499421    5489938.4 
    1400         0.35    4902.5872    49221.689   -1769099.4    269738.93   -1499360.5    5482032.2 
    1500        0.375    4902.3811     49287.98   -1769098.4    269727.59   -1499370.8    5474125.9 
    1600          0.4    4902.5594    49341.023     -1769115    269737.39   -1499377.6    5466219.7 
    1700        0.425     4901.843    49410.157   -1769088.4    269697.98   -1499390.4    5458313.5 
    1800         0.45    4901.9603    49450.098   -1769106.5    269704.44   -1499402.1    5450407.2 
    1900        0.475    4901.8859    49515.558   -1769109.3    269700.34     -1499409      5442501 
    2000          0.5    4901.9003    49600.094   -1769107.8    269701.13   -1499406.7    5434594.8 
    2100        0.525    4901.9111    49686.916   -1769112.4    269701.73   -1499410.7    5426688.6 
    2200         0.55    4901.6017    49759.658   -1769102.1     269684.7   -1499417.4    5418782.3 
    2300        0.575    4901.8229    49810.617   -1769107.8    269696.88   -1499410.9    5410876.1 
    2400          0.6    4901.5371    49857.061   -1769099.7    269681.15   -1499418.5    5402969.9 
    2500        0.625    4901.7119    49922.461   -1769115.2    269690.77   -1499424.4    5395063.6 
    2600         0.65    4901.6084    50009.569   -1769122.1    269685.07     -1499437    5387157.4 
    2700        0.675    4901.1934    50110.765   -1769099.7    269662.24   -1499437.5    5379251.2 
    2800          0.7    4901.7743    50204.351   -1769095.7     269694.2   -1499401.5    5371344.9 
    2900        0.725    4901.7889    50257.902     -1769099    269695.01     -1499404    5363438.7 
    3000         0.75    4901.6577    50316.014   -1769092.9    269687.79   -1499405.1    5355532.5 
    3100        0.775    4901.7785     50381.43   -1769111.6    269694.43   -1499417.2    5347626.3 
    3200          0.8    4902.1268    50456.288   -1769128.7     269713.6   -1499415.1      5339720 
    3300        0.825    4901.9662    50540.203     -1769115    269704.76   -1499410.2    5331813.8 
    3400         0.85    4901.6252    50633.077   -1769098.2    269685.99   -1499412.3    5323907.6 
    3500        0.875    4901.4867    50734.157   -1769093.7    269678.37   -1499415.3    5316001.3 
    3600          0.9    4901.6912    50804.803   -1769102.9    269689.63   -1499413.2    5308095.1 
    3700        0.925    4904.3851    50791.511   -1769246.6    269837.85   -1499408.8    5300188.9 
    3800         0.95    4906.5776    50771.552   -1769375.2    269958.48   -1499416.7    5292282.7 
    3900        0.975     4906.522    50912.342   -1769380.4    269955.42     -1499425    5284376.4 
    4000            1    4903.7378    51593.464     -1769244    269802.23   -1499441.8    5276470.2 
    4100        1.025    4898.2364    52690.834   -1768933.3    269499.54   -1499433.7      5268564 
    4200         1.05    4891.2408    53952.925   -1768492.1    269114.65   -1499377.5    5260657.7 
    4300        1.075    4882.0492    55313.068   -1767990.3    268608.93   -1499381.4    5252751.5 
    4400          1.1    4872.0418    56680.653   -1767435.2    268058.33   -1499376.9    5244845.3 
    4500        1.125    4861.0844    58070.184   -1766841.9    267455.46   -1499386.5      5236939 
    4600         1.15    4850.2316    59498.886     -1766258    266858.33   -1499399.7    5229032.8 
    4700        1.175    4837.6272    61145.736   -1765569.8    266164.85   -1499404.9    5221126.6 
    4800          1.2    4822.4772    63134.982   -1764736.6     265331.3   -1499405.3    5213220.4 
    4900        1.225    4804.8723    65318.265     -1763771    264362.68   -1499408.3    5205314.1 
    5000         1.25    4785.4601    67644.178   -1762706.8    263294.63   -1499412.2    5197407.9 
    5100        1.275    4763.8378    70008.233   -1761517.5    262104.97   -1499412.5    5189501.7 
    5200          1.3    4745.3264    72343.977   -1760456.3    261086.48   -1499369.8    5181595.4 
    5300        1.325    4722.1668    74698.278   -1759199.3    259812.25   -1499387.1    5173689.2 
    5400         1.35    4697.7047    77175.423   -1757865.9    258466.35   -1499399.6      5165783 
    5500        1.375    4673.0638    79698.829     -1756531    257110.62   -1499420.4    5157876.7 
    5600          1.4    4646.6389    82341.093   -1755074.1    255656.73   -1499417.3    5149970.5 
    5700        1.425    4619.3852    85116.185   -1753572.6    254157.23   -1499415.3    5142064.3 
    5800         1.45    4591.0092     87997.67   -1752005.9       252596   -1499409.9    5134158.1 
    5900        1.475    4562.7349    91064.758     -1750398    251040.35   -1499357.6    5126251.8 
    6000          1.5    4533.3991    94257.156   -1748802.5     249426.3   -1499376.2    5118345.6 
    6100        1.525    4502.0069    97531.847   -1747085.3    247699.11   -1499386.2    5110439.4 
    6200         1.55    4471.6999    100808.75   -1745433.3    246031.63   -1499401.6    5102533.1 
    6300        1.575    4440.8619    104150.09     -1743756    244334.93     -1499421    5094626.9 
    6400          1.6    4408.9774    107561.38   -1742014.3    242580.66   -1499433.7    5086720.7 
    6500        1.625    4378.1551    111033.83   -1740315.2    240884.82   -1499430.4    5078814.4 
    6600         1.65    4348.1165    114497.25   -1738661.7    239232.11   -1499429.6    5070908.2 
    6700        1.675    4317.3221    118069.89   -1736965.5    237537.81   -1499427.7      5063002 
    6800          1.7    4287.2299    121687.56   -1735260.4    235882.15   -1499378.3    5055095.8 
    6900        1.725    4256.3275    125354.16     -1733562    234181.91   -1499380.1    5047189.5 
    7000         1.75     4225.483    128994.31   -1731880.7    232484.85   -1499395.8    5039283.3 
    7100        1.775    4194.4672     132692.4   -1730190.9    230778.37   -1499412.6    5031377.1 
    7200          1.8    4163.5353    136478.48   -1728496.5     229076.5     -1499420    5023470.8 
    7300        1.825    4132.2681    140208.73   -1726788.6    227356.19   -1499432.4    5015564.6 
    7400         1.85    4101.6115     143959.7     -1725106    225669.48   -1499436.5    5007658.4 
    7500        1.875    4069.6342    147715.56   -1723350.9    223910.09   -1499440.8    4999752.1 
    7600          1.9    4039.1579    151570.92   -1721683.7    222233.29   -1499450.4    4991845.9 
    7700        1.925    4008.7136    155463.45     -1719958    220558.26   -1499399.7    4983939.7 
    7800         1.95    3977.4832    159272.05   -1718250.2    218839.97   -1499410.2    4976033.5 
    7900        1.975    3946.5625    163157.18   -1716550.8    217138.72   -1499412.1    4968127.2 
    8000            2    3914.8643    167073.85   -1714825.8     215394.7   -1499431.1      4960221 
    8100        2.025    3883.9429    171008.02   -1713130.2    213693.41   -1499436.8    4952314.8 
    8200         2.05    3853.0315    174948.73   -1711422.1    211992.67   -1499429.4    4944408.5 
    8300        2.075    3822.1207     178842.9   -1709726.8    210291.97   -1499434.8    4936502.3 
    8400          2.1    3789.9187    182783.36   -1707962.8    208520.23   -1499442.6    4928596.1 
    8500        2.125    3759.2438    186746.86   -1706280.3    206832.51   -1499447.8    4920689.8 
    8600         2.15    3728.5019    190776.44   -1704589.4     205141.1   -1499448.3    4912783.6 
    8700        2.175    3696.4539    194725.13   -1702835.2    203377.82   -1499457.4    4904877.4 
    8800          2.2    3666.8548    198687.22   -1701167.4    201749.29   -1499418.2    4896971.2 
    8900        2.225    3635.5566    202624.76   -1699455.1    200027.27   -1499427.8    4889064.9 
    9000         2.25    3605.4221    206505.39   -1697806.5    198369.28   -1499437.2    4881158.7 
    9100        2.275    3577.7076    210294.34   -1696268.6    196844.43   -1499424.2    4873252.5 
    9200          2.3     3553.181    213708.42   -1694916.4    195494.99   -1499421.4    4865346.2 
    9300        2.325    3536.3718    216451.21   -1694001.7    194570.15   -1499431.6      4857440 
    9400         2.35    3529.8991    218179.29   -1693659.5    194214.03   -1499445.5    4849533.8 
    9500        2.375    3528.1087    219138.38   -1693565.3    194115.52   -1499449.8    4841627.6 
    9600          2.4    3523.7304    219771.97   -1693326.8    193874.63   -1499452.2    4833721.3 
    9700        2.425    3519.7154    220426.06   -1693062.5    193653.72   -1499408.8    4825815.1 
    9800         2.45    3515.7643    221099.81   -1692847.6    193436.33   -1499411.2    4817908.9 
    9900        2.475     3512.266    221779.26   -1692660.3    193243.86   -1499416.4    4810002.6 
   10000          2.5    3509.1601    222416.78   -1692489.5    193072.97   -1499416.5    4802096.4 
   10100        2.525    3506.1265     222976.4     -1692309    192906.06     -1499403    4794190.2 
   10200         2.55    3504.0042    223431.51     -1692192     192789.3   -1499402.7    4786283.9 
   10300        2.575    3500.4486    224006.11   -1691994.9    192593.67   -1499401.3    4778377.7 
   10400          2.6    3500.3151    224669.68   -1691971.2    192586.32   -1499384.9    4770471.5 
   10500        2.625    3496.6302    225331.66   -1691770.3    192383.58   -1499386.7    4762565.3 
   10600         2.65    3492.1505    226168.63     -1691531    192137.11   -1499393.8      4754659 
   10700        2.675    3480.5214    227660.81   -1690857.2    191497.28     -1499360    4746752.8 
   10800          2.7    3461.9376    229918.88     -1689834     190474.8   -1499359.2    4738846.6 
   10900        2.725    3438.0597    232609.72   -1688526.3    189161.05   -1499365.3    4730940.3 
   11000         2.75     3410.769    235604.83     -1687040    187659.52   -1499380.4    4723034.1 
   11100        2.775    3384.3372       238774   -1685591.4    186205.25   -1499386.2    4715127.9 
   11200          2.8     3357.546    241986.47   -1684128.5    184731.21   -1499397.2    4707221.6 
   11300        2.825    3328.9965    245320.02   -1682560.3    183160.42   -1499399.9    4699315.4 
   11400         2.85    3302.9719    248787.17   -1681078.8    181728.56   -1499350.3    4691409.2 
   11500        2.875    3274.7095    252297.06   -1679539.8    180173.57   -1499366.2      4683503 
   11600          2.9    3244.0614    256032.88   -1677846.2    178487.32   -1499358.9    4675596.7 
   11700        2.925    3213.3908    260099.21   -1676157.3    176799.83   -1499357.5    4667690.5 
   11800         2.95    3183.7099    264232.15   -1674526.2     175166.8   -1499359.4    4659784.3 
   11900        2.975    3153.6547    268416.72   -1672877.4    173513.17   -1499364.2      4651878 
   12000            3    3123.9966    272755.96   -1671247.2    171881.39   -1499365.8    4643971.8 
   12100        3.025    3094.8866    277076.62   -1669645.6    170279.76   -1499365.8    4636065.6 
   12200         3.05    3065.9948    281354.85   -1668045.9    168690.15   -1499355.8    4628159.3 
   12300        3.075    3034.8603    285786.34     -1666337    166977.14   -1499359.9    4620253.1 
   12400          3.1    3004.9506     290414.7     -1664690    165331.51   -1499358.5    4612346.9 
   12500        3.125    2973.0549    294965.63     -1662939    163576.62   -1499362.3    4604440.7 
   12600         3.15     2941.938    299717.17   -1661236.2    161864.58   -1499371.6    4596534.4 
   12700        3.175    2908.9644    304631.45   -1659429.6    160050.38   -1499379.3    4588628.2 
   12800          3.2    2875.9562    309539.54   -1657566.4    158234.28   -1499332.2      4580722 
   12900        3.225     2840.311    314527.95   -1655609.2    156273.09   -1499336.1    4572815.7 
   13000         3.25    2805.4278    319651.96   -1653688.4    154353.82   -1499334.6    4564909.5 
   13100        3.275    2767.9013     324837.2     -1651626    152289.13   -1499336.9    4557003.3 
   13200          3.3    2729.3601     330127.8   -1649505.9     150168.6   -1499337.3      4549097 
   13300        3.325    2691.3137    335512.41   -1647413.5     148075.3   -1499338.2    4541190.8 
   13400         3.35    2650.3959    341064.45   -1645150.3    145824.01   -1499326.3    4533284.6 
   13500        3.375    2610.6858    346664.06   -1642966.2    143639.18     -1499327    4525378.4 
   13600          3.4    2570.9304    352272.86   -1640787.1    141451.85   -1499335.2    4517472.1 
   13700        3.425    2530.2683    357665.76   -1638559.2    139214.63   -1499344.6    4509565.9 
   13800         3.45    2492.6008    363024.14   -1636487.9    137142.17   -1499345.7    4501659.7 
   13900        3.475     2455.137    368351.58     -1634428    135080.92   -1499347.1    4493753.4 
   14000          3.5    2420.1517    373567.83   -1632490.3    133156.04   -1499334.3    4485847.2 
   14100        3.525     2384.483    378671.95   -1630540.4    131193.57   -1499346.8      4477941 
   14200         3.55    2350.9307    383756.42   -1628706.5    129347.53     -1499359    4470034.8 
   14300        3.575    2318.3654    388745.99     -1626920    127555.79   -1499364.3    4462128.5 
   14400          3.6    2287.4534     393615.8   -1625220.7    125855.02   -1499365.7    4454222.3 
   14500        3.625    2256.0503    398485.08   -1623504.1    124127.24   -1499376.9    4446316.1 
   14600         3.65    2226.3615    403416.75   -1621825.9    122493.77   -1499332.1    4438409.8 
   14700        3.675    2203.8793    407594.81     -1620604     121256.8   -1499347.2    4430503.6 
   14800          3.7    2204.4531    409448.39   -1620640.3    121288.37     -1499352    4422597.4 
   14900        3.725    2207.4885    409289.31   -1620792.4    121455.38     -1499337    4414691.1 
   15000         3.75    2206.7445    408684.82   -1620755.6    121414.44   -1499341.1    4406784.9 
   15100        3.775    2217.3708    408522.69   -1621346.5     121999.1   -1499347.4    4398878.7 
   15200          3.8    2216.8529    408849.38   -1621324.6     121970.6     -1499354    4390972.5 
   15300        3.825     2222.538       408924   -1621589.8    122283.39   -1499306.4    4383066.2 
   15400         3.85    2225.9772     408616.9   -1621783.4    122472.62   -1499310.7      4375160 
   15500        3.875    2219.1214    408594.35     -1621414    122095.42   -1499318.6    4367253.8 
   15600          3.9    2233.1559    408426.34     -1622197    122867.59   -1499329.5    4359347.5 
   15700        3.925    2227.0809    408693.12   -1621824.1    122533.35   -1499290.8    4351441.3 
   15800         3.95    2234.2285    409040.98   -1622229.8     122926.6   -1499303.2    4343535.1 
   15900        3.975    2233.0392    409512.04   -1622185.7    122861.17   -1499324.5    4335628.8 
   16000            4    2230.8268    410294.06   -1622045.3    122739.44   -1499305.9    4327722.6 
   16100        4.025    2230.6929    411699.47   -1622045.9    122732.08   -1499313.8    4319816.4 
   16200         4.05    2210.7633     413824.5   -1620965.4    121635.56   -1499329.8    4311910.2 
   16300        4.075    2196.8544    416215.21   -1620231.1    120870.29   -1499360.8    4304003.9 
   16400          4.1    2168.6783    419294.49   -1618646.4    119320.05   -1499326.3    4296097.7 
   16500        4.125     2156.428    422637.62   -1617986.6    118646.04   -1499340.6    4288191.5 
   16600         4.15    2124.9288    425983.22   -1616242.3    116912.97   -1499329.3    4280285.2 
   16700        4.175    2103.4435    429537.55   -1615060.2    115730.85   -1499329.4      4272379 
   16800          4.2    2080.8217    433453.88   -1613830.5     114486.2   -1499344.3    4264472.8 
   16900        4.225     2052.955    437198.92   -1612317.3    112952.99   -1499364.3    4256566.5 
   17000         4.25    2026.4994    441182.04   -1610861.1    111497.41   -1499363.7    4248660.3 
   17100        4.275     1995.921    445902.89   -1609129.5    109814.99   -1499314.5    4240754.1 
   17200          4.3    1969.6357    450686.99   -1607685.9    108368.79   -1499317.1    4232847.9 
   17300        4.325    1932.7699    455555.52   -1605665.9    106340.44   -1499325.4    4224941.6 
   17400         4.35    1905.1257    460852.76   -1604137.4    104819.46   -1499317.9    4217035.4 
   17500        4.375    1868.8529    466257.28   -1602135.5    102823.75   -1499311.7    4209129.2 
   17600          4.4    1836.1084    471760.11   -1600336.9    101022.15   -1499314.7    4201222.9 
   17700        4.425    1798.5648    477360.35     -1598282    98956.512   -1499325.5    4193316.7 
   17800         4.45    1761.2756    483332.58   -1596240.2     96904.87   -1499335.3    4185410.5 
   17900        4.475    1720.4694    489440.35   -1593995.5     94659.73   -1499335.8    4177504.2 
   18000          4.5    1682.1708       495743   -1591839.9     92552.55   -1499287.3      4169598 
   18100        4.525    1641.9696    502035.46   -1589634.1    90340.693   -1499293.4    4161691.8 
   18200         4.55    1598.3678    508462.65   -1587225.6    87941.734   -1499283.9    4153785.6 
   18300        4.575    1556.6044    514895.18   -1584923.6    85643.922   -1499279.6    4145879.3 
   18400          4.6    1511.9871    521413.09   -1582478.2    83189.091   -1499289.1    4137973.1 
   18500        4.625    1472.0092    527849.21   -1580287.7     80989.52   -1499298.2    4130066.9 
   18600         4.65     1424.993     534237.8   -1577704.3    78402.704   -1499301.6    4122160.6 
   18700        4.675    1385.2369    540851.12   -1575529.2     76215.33   -1499313.9    4114254.4 
   18800          4.7    1341.3063    547344.19   -1573110.4    73798.281   -1499312.1    4106348.2 
   18900        4.725    1303.9426    553737.38   -1571050.4    71742.543   -1499307.8    4098441.9 
   19000         4.75    1261.3672    560182.88   -1568717.6    69400.059   -1499317.6    4090535.7 
   19100        4.775    1226.1693    566847.33   -1566787.9    67463.477   -1499324.4    4082629.5 
   19200          4.8    1189.8208    573194.15   -1564723.9    65463.597   -1499260.4    4074723.3 
   19300        4.825    1152.6157    579382.25   -1562683.3    63416.581   -1499266.7      4066817 
   19400         4.85    1120.8967    585170.04   -1560942.8     61671.41   -1499271.4    4058910.8 
   19500        4.875    1089.8658    590756.04   -1559246.7    59964.099   -1499282.6    4051004.6 
   19600          4.9    1061.4017    595905.88   -1557683.5    58398.015   -1499285.5    4043098.3 
   19700        4.925    1034.3701    600956.43   -1556193.2    56910.745   -1499282.5    4035192.1 
   19800         4.95    1008.9753    605915.88     -1554798    55513.526   -1499284.5    4027285.9 
   19900        4.975     984.6271    610767.77   -1553469.9    54173.898     -1499296    4019379.7 
   20000            5    964.84762     615709.3   -1552386.9    53085.636   -1499301.3    4011473.4 
   20100        5.025    943.37961    620591.96   -1551206.2    51904.473   -1499301.7    4003567.2 
   20200         5.05    934.73664    624362.77   -1550726.8    51428.939   -1499297.9      3995661 
   20300        5.075    944.34334    625820.48   -1551253.4    51957.497   -1499295.9    3987754.7 
   20400          5.1    949.42631    626023.67     -1551534     52237.16   -1499296.8    3979848.5 
   20500        5.125    953.40817    625813.83   -1551692.1    52456.241   -1499235.8    3971942.3 
   20600         5.15    965.47975    625854.13   -1552309.6    53120.416   -1499189.2      3964036 
   20700        5.175    966.18192    626518.42     -1552176    53159.049     -1499017    3956129.8 
   20800          5.2    981.03812    626752.04   -1552509.7    53976.433   -1498533.3    3948223.6 
   20900        5.225    997.17526    628742.44   -1550658.5    54864.294   -1495794.2    3940317.4 
   21000         5.25    1057.0316     633307.7     -1548129     58157.57   -1489971.5    3932411.1 
   21100        5.275    1070.5071    637880.17   -1544234.7    58898.991   -1485335.8    3924504.9 
   21200          5.3    1112.3041    642193.07   -1541387.9    61198.647   -1480189.2    3916598.7 
   21300        5.325    1142.8446    648641.82   -1536377.3    62878.977   -1473498.4    3908692.4 
   21400         5.35    1156.5075    656342.37   -1531381.1    63630.708   -1467750.4    3900786.2 
   21500        5.375    1128.5135    662711.14   -1525150.8    62090.488   -1463060.4      3892880 
   21600          5.4    1155.1605    671257.98     -1520113    63556.598   -1456556.4    3884973.7 
   21700        5.425    1184.3356    679549.35   -1513597.3    65161.799   -1448435.5    3877067.5 
   21800         5.45    1229.4375    686746.55   -1508283.1    67643.294   -1440639.8    3869161.3 
   21900        5.475    1251.4519    695579.98   -1501974.6    68854.521   -1433120.1    3861255.1 
   22000          5.5    1291.0428     706791.8   -1495918.2    71032.802   -1424885.3    3853348.8 
   22100        5.525     1336.244    717857.52   -1489490.9     73519.76   -1415971.1    3845442.6 
   22200         5.55    1373.1182    729204.81   -1482842.3    75548.565   -1407293.7    3837536.4 
   22300        5.575    1425.1644    742272.31   -1476207.4    78412.133   -1397795.3    3829630.1 
   22400          5.6    1485.6549     755644.3   -1469257.4    81740.304   -1387517.1    3821723.9 
   22500        5.625    1540.4332     768948.2   -1462384.3    84754.185   -1377630.1    3813817.7 
   22600         5.65    1598.6207    783150.42   -1455716.3    87955.646   -1367760.6    3805911.4 
   22700        5.675    1671.4887    797642.73   -1448988.4    91964.822   -1357023.6    3798005.2 
   22800          5.7     1738.479     811873.1   -1442106.4    95650.609   -1346455.8      3790099 
   22900        5.725    1813.4959    826723.16   -1435677.4     99778.02   -1335899.3    3782192.8 
   23000         5.75    1889.1917    841857.67   -1429194.6    103942.78   -1325251.8    3774286.5 
   23100        5.775    1967.2425    857020.62   -1422758.4    108237.11   -1314521.3    3766380.3 
   23200          5.8    2042.0757    871925.83     -1416357    112354.42   -1304002.6    3758474.1 
   23300        5.825    2123.3215    887053.41   -1410185.9    116824.53   -1293361.4    3750567.8 
   23400         5.85    2203.9428    902011.94   -1404089.2    121260.29   -1282828.9    3742661.6 
   23500        5.875    2288.6616    917059.64   -1398215.9     125921.5   -1272294.4    3734755.4 
   23600          5.9    2370.0298    931697.19   -1392275.4    130398.35   -1261877.1    3726849.1 
   23700        5.925    2459.0933    946450.74     -1386798     135298.6   -1251499.4    3718942.9 
   23800         5.95    2545.6963    960465.46   -1381360.9    140063.47   -1241297.4    3711036.7 
   23900        5.975    2657.6444    971856.08   -1377200.9    146222.82   -1230978.1    3703130.5 
   24000            6    2783.7002    980152.15   -1374058.7    153158.38   -1220900.3    3695224.2 
   24100        6.025    2904.1698    987275.15   -1370650.2    159786.58   -1210863.6      3687318 
   24200         6.05    3037.6438    994574.53   -1368019.5    167130.28   -1200889.2    3679411.8 
   24300        6.075    3167.9864    1003046.4   -1365184.4    174301.69   -1190882.7    3671505.5 
   24400          6.1    3286.7991    1009905.8   -1361958.1    180838.73   -1181119.3    3663599.3 
   24500        6.125    3427.4689    1014727.1   -1359868.8    188578.34   -1171290.4    3655693.1 
   24600         6.15    3529.8254    1020474.3   -1355779.7    194209.97   -1161569.8    3647786.9 
   24700        6.175    3647.6204    1028542.4   -1352601.6    200691.02   -1151910.6    3639880.6 
   24800          6.2    3737.5023      1036031   -1348004.8    205636.29   -1142368.5    3631974.4 
   24900        6.225    3838.0028    1041026.6   -1344100.6     211165.8   -1132934.8    3624068.2 
   25000         6.25    3927.9035      1045755   -1339660.2    216112.11   -1123548.1    3616161.9 
   25100        6.275    4009.5752    1051619.6   -1334861.3    220605.66   -1114255.6    3608255.7 
   25200          6.3    4080.0516    1059581.9   -1329547.8    224483.25   -1105064.5    3600349.5 
   25300        6.325    4143.9258    1069270.1   -1323880.7     227997.6   -1095883.1    3592443.2 
   25400         6.35    4198.0608    1079005.6   -1317892.7    230976.09   -1086916.6      3584537 
   25500        6.375    4232.6998    1090249.3   -1310954.2    232881.92   -1078072.2    3576630.8 
   25600          6.4    4266.3428    1103482.8   -1304161.9    234732.94   -1069428.9    3568724.6 
   25700        6.425    4282.2006    1117172.3   -1296731.1    235605.43   -1061125.6    3560818.3 
   25800         6.45    4296.8485    1131370.5   -1289534.8    236411.36   -1053123.4    3552912.1 
   25900        6.475    4290.7745    1147349.5   -1281766.5    236077.17   -1045689.3    3545005.9 
   26000          6.5    4279.9535    1164395.3   -1274183.6     235481.8   -1038701.8    3537099.6 
   26100        6.525    4243.6176      1181793   -1265897.7    233482.61   -1032415.1    3529193.4 
   26200         6.55    4204.3073    1199676.1   -1257891.6    231319.77   -1026571.8    3521287.2 
   26300        6.575    4154.8615    1217459.2   -1249750.4    228599.27   -1021151.1    3513380.9 
   26400          6.6    4098.9677    1234866.7   -1241715.5    225524.01   -1016191.5    3505474.7 
   26500        6.625    4035.1278    1252423.9   -1233432.9    222011.56   -1011421.3    3497568.5 
   26600         6.65    3973.7533    1269729.2   -1225548.7    218634.76     -1006914    3489662.3 
   26700        6.675    3909.7589    1285830.3   -1217484.2     215113.8   -1002370.3      3481756 
   26800          6.7    3869.7792    1300085.8   -1210763.4    212914.13   -997849.27    3473849.8 
   26900        6.725    3841.8971    1311567.2   -1204849.1    211380.06   -993469.01    3465943.6 
   27000         6.75    3818.2393    1321279.6   -1199244.4    210078.42   -989165.95    3458037.3 
   27100        6.775    3809.7905    1330598.7   -1194708.5    209613.57   -985094.95    3450131.1 
   27200          6.8    3813.1779    1340078.8   -1190903.6    209799.94   -981103.62    3442224.9 
   27300        6.825    3828.7427    1349535.4     -1187908    210656.31   -977251.69    3434318.6 
   27400         6.85    3856.0451    1357367.5   -1185440.9    212158.48   -973282.45    3426412.4 
   27500        6.875    3895.1461    1362835.8   -1183408.4    214309.81   -969098.61    3418506.2 
   27600          6.9    3943.5384    1367681.8   -1181319.3    216972.34   -964346.92      3410600 
   27700        6.925    4008.0357    1371903.1   -1179598.9    220520.96   -959077.97    3402693.7 
   27800         6.95    4083.1565    1376429.1   -1177795.8    224654.09   -953141.67    3394787.5 
   27900        6.975    4173.3503    1380888.8     -1176300    229616.52   -946683.46    3386881.3 
   28000            7    4276.3903    1385602.9   -1174948.3    235285.75   -939662.56      3378975 
   28100        7.025    4377.0975    1391238.4   -1173095.2    240826.64   -932268.58    3371068.8 
   28200         7.05    4485.0198    1398496.8   -1171407.7    246764.49   -924643.23    3363162.6 
   28300        7.075    4583.3899    1407903.1     -1168585    252176.78   -916408.21    3355256.3 
   28400          7.1    4675.5127    1419216.7     -1164766    257245.35   -907520.66    3347350.1 
   28500        7.125    4773.4593    1432422.4   -1160535.1    262634.34   -897900.73    3339443.9 
   28600         7.15    4852.5493    1447850.7   -1155065.9    266985.85      -888080    3331537.7 
   28700        7.175    4931.7919    1465406.4   -1149177.2    271345.76   -877831.45    3323631.4 
   28800          7.2    5003.3758    1484210.5   -1142455.6    275284.28   -867171.33    3315725.2 
   28900        7.225    5076.8013    1503714.6   -1135245.9    279324.13   -855921.73      3307819 
   29000         7.25    5146.6869    1523696.1   -1127732.2    283169.22   -844563.03    3299912.7 
   29100        7.275     5205.991      1543677   -1119494.4    286432.11   -833062.28    3292006.5 
   29200          7.3    5263.4556    1563503.9   -1110908.6     289593.8   -821314.84    3284100.3 
   29300        7.325    5312.2642    1583665.1     -1101774    292279.24   -809494.78      3276194 
   29400         7.35    5357.2419    1604448.5   -1092330.7     294753.9    -797576.8    3268287.8 
   29500        7.375    5395.8003    1625916.9   -1082730.8    296875.37   -785855.46    3260381.6 
   29600          7.4    5438.6864    1648265.4   -1073144.5    299234.95   -773909.58    3252475.4 
   29700        7.425    5490.2536    1669659.2   -1064029.7    302072.16   -761957.51    3244569.1 
   29800         7.45    5549.0956    1688054.6   -1055577.2    305309.63   -750267.54    3236662.9 
   29900        7.475    5613.0215    1703547.2   -1047359.8    308826.82   -738533.03    3228756.7 
   30000          7.5    5677.9015    1716769.1   -1039125.8     312396.5   -726729.27    3220850.4 
   30100        7.525    5739.0096    1727933.8   -1030505.9    315758.65   -714747.21    3212944.2 
   30200         7.55    5813.0478    1739562.3   -1022706.1    319832.21   -702873.92      3205038 
   30300        7.575    5882.4671    1753044.6   -1014548.5    323651.63   -690896.89    3197131.8 
   30400          7.6    5936.1934      1767230   -1005482.5    326607.64   -678874.82    3189225.5 
   30500        7.625    5993.3785    1781885.5   -996505.28    329753.94   -666751.34    3181319.3 
   30600         7.65      6040.07      1797909    -987163.6     332322.9    -654840.7    3173413.1 
   30700        7.675    6092.8903    1815581.7   -978472.86    335229.06    -643243.8    3165506.8 
   30800          7.7    6143.3753    1833974.9    -969751.3    338006.73   -631744.58    3157600.6 
   30900        7.725    6198.1692    1851325.4   -961590.51    341021.47   -620569.03    3149694.4 
   31000         7.75    6233.4831    1868560.6   -952768.61    342964.43   -609804.18    3141788.1 
   31100        7.775    6253.5114    1888039.2   -943606.75    344066.38   -599540.37    3133881.9 
   31200          7.8    6242.6428    1908742.7   -932997.39    343468.39   -589528.99    3125975.7 
   31300        7.825    6217.1621    1927760.9   -921824.82    342066.45   -579758.36    3118069.5 
   31400         7.85    6174.6992    1946323.7   -910171.98    339730.16   -570441.82    3110163.2 
   31500        7.875    6115.7615    1966568.3   -897996.87    336487.42   -561509.45      3102257 
   31600          7.9    6056.1965    1986946.4   -885931.72    333210.18   -552721.55    3094350.8 
   31700        7.925    5977.7761    2006328.4   -873167.15    328895.51   -544271.64    3086444.5 
   31800         7.95    5886.4298    2026146.8   -860012.96    323869.66   -536143.29    3078538.3 
   31900        7.975    5788.1839    2047910.5   -846804.08     318464.2   -528339.88    3070632.1 
   32000            8    5675.5429    2070231.9   -833113.89    312266.72   -520847.17    3062725.8 
   32100        8.025    5566.1255    2091709.2   -820007.44    306246.61   -513760.82    3054819.6 
   32200         8.05    5465.7187    2111583.1   -807860.37    300722.26   -507138.11    3046913.4 
   32300        8.075    5376.7295    2130139.3   -796608.43     295826.1   -500782.34    3039007.2 
   32400          8.1    5298.1005    2147818.8   -786344.87    291499.95   -494844.91    3031100.9 
   32500        8.125    5210.7576    2165666.8   -776010.84    286694.37   -489316.47    3023194.7 
   32600         8.15    5104.6819    2185048.7   -764816.81    280858.12   -483958.69    3015288.5 
   32700        8.175    4974.5086    2206075.2   -752646.39    273696.02   -478950.38    3007382.2 
   32800          8.2    4830.5357    2226670.2    -740040.6    265774.67   -474265.93      2999476 
   32900        8.225    4688.5095    2247670.3   -727643.42    257960.43   -469682.99    2991569.8 
   33000         8.25    4540.5564    2269261.5   -715142.42     249820.1   -465322.32    2983663.5 
   33100        8.275    4396.6888      2291562   -702895.83    241904.54   -460991.28    2975757.3 
   33200          8.3    4236.5443    2313716.6      -689973    233093.44   -456879.56    2967851.1 
   33300        8.325    4070.8413    2336010.3   -676925.55    223976.51   -452949.04    2959944.9 
   33400         8.35    3899.5796    2357800.3   -663564.64    214553.74    -449010.9    2952038.6 
   33500        8.375     3733.214    2379527.8   -650610.62    205400.35   -445210.27    2944132.4 
   33600          8.4    3552.3049    2401111.1   -637002.08    195446.79    -441555.3    2936226.2 
   33700        8.425    3385.5371    2421982.7   -624047.42    186271.27   -437776.15    2928319.9 
   33800         8.45    3220.1158    2441821.9   -611175.11    177169.84   -434005.27    2920413.7 
   33900        8.475    3058.6964    2461221.8   -598304.13    168288.59   -430015.54    2912507.5 
   34000          8.5    2914.3654    2479982.1   -586121.44    160347.54   -425773.91    2904601.2 
   34100        8.525    2774.5238      2497399   -573761.86     152653.5   -421108.37      2896695 
   34200         8.55    2663.0571    2513283.1   -562361.62    146520.63   -415840.99    2888788.8 
   34300        8.575    2580.3586    2527617.4   -552049.48    141970.58    -410078.9    2880882.6 
   34400          8.6    2520.8364    2540471.8   -542302.11    138695.69   -403606.42    2872976.3 
   34500        8.625    2474.0484    2553242.5   -532973.65    136121.43   -396852.22    2865070.1 
   34600         8.65    2447.9876    2567076.8   -524433.32    134687.57   -389745.75    2857163.9 
   34700        8.675    2424.1854    2581999.9   -515791.97    133377.98   -382413.99    2849257.6 
   34800          8.7    2408.6202    2598887.4   -507036.25    132521.58   -374514.66    2841351.4 
   34900        8.725    2417.4019    2617047.3   -498987.16    133004.75   -365982.41    2833445.2 
   35000         8.75    2442.7813    2636260.5   -490938.65    134401.12   -356537.52      2825539 
   35100        8.775    2484.1084    2656241.6   -483269.93    136674.92   -346595.01    2817632.7 
   35200          8.8    2537.9169    2677406.1   -475818.64    139635.45   -336183.18    2809726.5 
   35300        8.825    2603.0816    2699743.6   -468566.22    143220.79   -325345.43    2801820.3 
   35400         8.85    2683.2717    2722940.2   -461494.21    147632.83   -313861.38      2793914 
   35500        8.875    2747.2661    2747478.6   -453125.37    151153.78   -301971.58    2786007.8 
   35600          8.9    2800.9513    2772879.3   -444120.61    154107.53   -290013.08    2778101.6 
   35700        8.925    2851.1053    2799233.4   -434769.51    156866.99   -277902.52    2770195.3 
   35800         8.95     2864.481    2825842.2   -423405.68    157602.91   -265802.77    2762289.1 
   35900        8.975    2871.3824    2852945.6   -411741.51    157982.63   -253758.88    2754382.9 
   36000            9    2850.5373    2880146.6      -398396    156835.74   -241560.27    2746476.7 
   36100        9.025    2819.8967    2906500.1    -384633.6     155149.9    -229483.7    2738570.4 
   36200         9.05    2790.2639    2931955.8   -370586.68    153519.51   -217067.17    2730664.2 
   36300        9.075    2759.7348    2956307.1   -356017.35    151839.81   -204177.54      2722758 
   36400          9.1    2748.8635    2978466.9   -341760.77    151241.67   -190519.09    2714851.7 
   36500        9.125    2754.0574    3001156.9   -326894.35    151527.44   -175366.91    2706945.5 
   36600         9.15     2786.745    3024529.6   -312181.53     153325.9   -158855.63    2699039.3 
   36700        9.175    2841.4893    3049989.6   -297260.06    156337.92   -140922.14      2691133 
   36800          9.2    2918.9799    3078077.8   -282644.11    160601.43   -122042.68    2683226.8 
   36900        9.225    2996.7561    3107502.5   -267801.83    164880.65   -102921.18    2675320.6 
   37000         9.25    3089.1103    3138676.6   -253380.92    169961.95   -83418.967    2667414.4 
   37100        9.275    3182.4427    3169955.6    -238328.3    175097.07   -63231.224    2659508.1 
   37200          9.3    3325.9247    3202457.1   -225549.74    182991.41   -42558.325    2651601.9 
   37300        9.325    3450.3431      3235923   -211077.64    189836.88   -21240.767    2643695.7 
   37400         9.35    3613.3801    3270384.3   -198132.72    198807.13    674.40363    2635789.4 
   37500        9.375    3776.0956    3305319.7   -184724.53    207759.69    23035.154    2627883.2 
   37600          9.4    3937.7501      3341217    -170560.7    216653.87    46093.169      2619977 
   37700        9.425    4116.8161    3377076.7   -157230.17    226506.03    69275.861    2612070.7 
   37800         9.45    4277.6345    3413734.1   -142826.35    235354.21    92527.853    2604164.5 
   37900        9.475     4449.176    3449720.1   -128910.01    244792.37    115882.36    2596258.3 
   38000          9.5    4595.4408    3485280.4   -113629.23    252839.82    139210.59    2588352.1 
   38100        9.525    4755.7787    3519247.7   -99077.532    261661.57    162584.04    2580445.8 
   38200         9.55    4910.7272    3552470.2   -84349.522    270186.78    185837.26    2572539.6 
   38300        9.575    5045.4994    3586689.3   -68214.164    277601.91    209387.75    2564633.4 
   38400          9.6    5181.8868    3621918.5   -52226.957    285105.91    232878.95    2556727.1 
   38500        9.625    5298.2701    3658965.2   -35268.125    291509.29    256241.16    2548820.9 
   38600         9.65    5405.9283    3696945.6    -17713.58    297432.61    279719.03    2540914.7 
   38700        9.675     5503.763    3736360.3    258.64103    302815.44    303074.09    2533008.4 
   38800          9.7    5584.1517      3776646     18921.12    307238.41    326159.53    2525102.2 
   38900        9.725    5681.2287    3819546.4    36388.229    312579.56    348967.79      2517196 
   39000         9.75    5749.4133    3863697.7    55040.672    316331.05    371371.72    2509289.8 
   39100        9.775    5803.6812    3909158.2    74032.691    319316.86    393349.55    2501383.5 
   39200          9.8     5881.312    3955413.7    91342.688    323588.08    414930.77    2493477.3 
   39300        9.825    5944.1793    4002375.4    109318.96    327047.02    436365.98    2485571.1 
   39400         9.85    6001.4995    4048089.9    127005.06    330200.76    457205.82    2477664.8 
   39500        9.875    6079.6519    4093646.2     143720.2    334500.68    478220.88    2469758.6 
   39600          9.9    6165.9958    4137813.9    160184.37     339251.3    499435.67    2461852.4 
   39700        9.925    6271.7856    4181109.9    176114.06    345071.82    521185.88    2453946.1 
   39800         9.95    6393.9967    4223825.7    191777.53    351795.85    543573.37    2446039.9 
   39900        9.975    6534.5665    4265670.2    207030.95    359529.95     566560.9    2438133.7 
   40000           10     6691.441      4309757    222392.92    368161.14    590554.06    2430227.5 
   40100       10.025    6875.5409    4353390.4    236935.58    378290.26    615225.85    2422321.2 
   40200        10.05    7065.1666    4397298.5    251939.23    388723.42    640662.65      2414415 
   40300       10.075    7272.2115      4442694    266827.03    400114.97       666942    2406508.8 
   40400         10.1    7504.0511    4490390.3    280638.02    412870.71    693508.73    2398602.5 
   40500       10.125    7711.8066    4540029.9    296438.71    424301.36    720740.07    2390696.3 
   40600        10.15      7947.74    4590786.2    311057.65    437282.35       748340    2382790.1 
   40700       10.175    8172.9216    4644371.4    326389.81    449671.78    776061.59    2374883.9 
   40800         10.2    8363.2689    4697915.1    343758.51    460144.63    803903.14    2366977.6 
   40900       10.225    8567.2384    4752877.8    360423.21    471366.97    831790.18    2359071.4 
   41000        10.25    8741.3551    4807557.3    378846.72    480946.82    859793.54    2351165.2 
   41100       10.275    8928.5008    4863026.7     396806.5    491243.52    888050.03    2343258.9 
   41200         10.3    9091.0364    4918494.6     416201.5    500186.19    916387.68    2335352.7 
   41300       10.325    9221.8071    4975840.7    437625.49    507381.15    945006.64    2327446.5 
   41400        10.35    9352.8356    5034953.8    459272.49     514590.3    973862.79    2319540.2 
   41500       10.375    9485.1123    5095950.8    480828.74    521868.13    1002696.9      2311634 
   41600         10.4    9572.7012    5158179.7    504798.56    526687.25    1031485.8    2303727.8 
   41700       10.425    9664.7353    5221162.2    528067.83    531750.93    1059818.8    2295821.6 
   41800        10.45    9736.2702    5285731.5    552091.15    535686.76    1087777.9    2287915.3 
   41900       10.475    9802.3474    5352433.3    576084.03    539322.31    1115406.3    2280009.1 
   42000         10.5    9862.4247    5420464.5    599595.23    542627.75      1142223    2272102.9 
   42100       10.525    9898.9057    5488837.2    623675.74    544634.92    1168310.7    2264196.6 
   42200        10.55     9916.412    5558257.2    648305.64    545598.11    1193903.8    2256290.4 
   42300       10.575    9924.5921    5626101.8    672746.68    546048.18    1218794.9    2248384.2 
   42400         10.6    9890.0692    5696200.6    699150.71    544148.74    1243299.5    2240477.9 
   42500       10.625    9854.0357    5768044.8    725098.19    542166.19    1267264.4    2232571.7 
   42600        10.65    9786.9952    5839719.7     752586.3    538477.64    1291063.9    2224665.5 
   42700       10.675    9702.1423    5914358.9    780691.37    533809.05    1314500.4    2216759.3 
   42800         10.7    9573.6241    5990977.8    811091.12    526738.02    1337829.1      2208853 
   42900       10.725    9425.5811    6070125.6    842378.65    518592.74    1360971.4    2200946.8 
   43000        10.75     9285.804    6149773.6    873213.49    510902.24    1384115.7    2193040.6 
   43100       10.775     9134.506      6232144     904653.4    502577.87    1407231.3    2185134.3 
   43200         10.8    8950.3981    6316831.9    937550.16     492448.3    1429998.5    2177228.1 
   43300       10.825    8797.3673    6401454.9    968626.23     484028.6    1452654.8    2169321.9 
   43400        10.85    8647.9344    6486672.5    999069.25    475806.84    1474876.1    2161415.6 
   43500       10.875    8513.8376    6570635.2    1028608.8    468428.88    1497037.6    2153509.4 
   43600         10.9    8383.7257    6651589.2    1057794.8    461270.16    1519064.9    2145603.2 
   43700       10.925    8270.7697    6732230.4    1085620.5    455055.35    1540675.9      2137697 
   43800        10.95    8150.3025      6814541    1113945.8    448427.28    1562373.1    2129790.7 
   43900       10.975    8023.5858    6897466.1      1142541    441455.36    1583996.4    2121884.5 
   44000           11    7913.6388    6982809.7    1170401.2    435406.11    1605807.3    2113978.3 
   44100       11.025    7791.7311    7066552.4    1199456.3    428698.79    1628155.1      2106072 
   44200        11.05    7710.0345    7154141.9    1227082.5    424203.86    1651286.4    2098165.8 
   44300       11.075    7627.7807    7242475.4    1255794.5    419678.28    1675472.8    2090259.6 
   44400         11.1    7574.2043    7331681.4    1284422.2    416730.52    1701152.7    2082353.3 
   44500       11.125    7570.2724    7423048.2    1311883.6    416514.19    1728397.8    2074447.1 
   44600        11.15    7551.5399    7516881.9    1342046.7    415483.53    1757530.3    2066540.9 
   44700       11.175    7570.6696      7612131    1372921.1    416536.05    1789457.1    2058634.7 
   44800         11.2    7636.6737    7713704.1    1404763.1    420167.57    1824930.7    2050728.4 
   44900       11.225    7733.8175    7817934.1    1438873.3    425512.39    1864385.7    2042822.2 
   45000        11.25    7824.7728    7929448.5    1477010.3    430516.73      1907527      2034916 
   45100       11.275    7960.5113    8047921.4    1515544.2    437985.03    1953529.2    2027009.7 
   45200         11.3    8137.4237    8171809.9      1554560    447718.69    2002278.7    2019103.5 
   45300       11.325    8286.2526    8297819.5    1596994.5    455907.21    2052901.8    2011197.3 
   45400        11.35    8502.0767    8426722.7    1637261.4    467781.79    2105043.2    2003291.1 
   45500       11.375    8719.3099    8557510.8    1678492.6     479733.9    2158226.5    1995384.8 
   45600         11.4    8946.6418    8688262.2    1720283.2    492241.64    2212524.8    1987478.6 
   45700       11.425    9166.2237    8818535.1    1762325.9    504322.97    2266648.9    1979572.4 
   45800        11.45      9358.12    8950888.8      1805783    514881.05    2320664.1    1971666.1 
   45900       11.475    9515.1699    9085726.6    1850782.6    523521.89    2374304.5    1963759.9 
   46000         11.5    9628.6442    9225644.3    1898470.2    529765.21    2428235.5    1955853.7 
   46100       11.525     9695.053    9371778.3    1947896.8    533419.01    2481315.8    1947947.4 
   46200        11.55    9731.4259    9520519.3    1998418.2    535420.23    2533838.5    1940041.2 
   46300       11.575    9775.6481    9667785.5    2048099.3    537853.32    2585952.7      1932135 
   46400         11.6    9801.1183      9816888    2098976.5    539254.69    2638231.2    1924228.8 
   46500       11.625    9899.6838    9960070.4    2145611.3    544677.73      2690289    1916322.5 
   46600        11.65    10034.023     10105267    2191280.3    552069.05    2743349.4    1908416.3 
   46700       11.675    10240.125     10247584    2235038.5    563408.72    2798447.2    1900510.1 
   46800         11.7    10468.626     10392922    2279324.9    575980.77    2855305.6    1892603.8 
   46900       11.725     10747.11     10545789    2323085.5     591302.9    2914388.4    1884697.6 
   47000        11.75    11031.133     10703529    2369280.5    606929.76    2976210.3    1876791.4 
   47100       11.775    11326.048     10864571    2416020.8     623155.9    3039176.7    1868885.1 
   47200         11.8    11657.902     11027302    2462238.9    641414.38    3103653.3    1860978.9 
   47300       11.825    11980.895     11193852    2510569.8    659185.39    3169755.2    1853072.7 
   47400        11.85    12331.724     11359117    2557075.5    678487.85    3235563.4    1845166.5 
   47500       11.875    12648.073     11523352    2605859.6    695893.31    3301752.9    1837260.2 
   47600         11.9    12923.496     11690332    2656005.2    711047.01    3367052.2      1829354 
   47700       11.925    13084.383     11866209    2710999.3    719898.97    3430898.2    1821447.8 
   47800        11.95    13171.996     12042746    2769182.6    724719.42      3493902    1813541.5 
   47900       11.975     13189.36     12225852    2828804.4    725674.74    3554479.2    1805635.3 
   48000           12    13129.886     12413073    2890967.8     722402.5    3613370.3    1797729.1 
   48100       12.025    13007.033     12599190    2954307.8    715643.19      3669951    1789822.8 
   48200        12.05    12832.045     12784836    3018818.9     706015.4    3724834.3    1781916.6 
   48300       12.075    12686.824     12969014    3080887.2     698025.4    3778912.6    1774010.4 
   48400         12.1     12456.45     13154775    3147080.4    685350.25    3832430.7    1766104.2 
   48500       12.125     12223.67     13344986    3213223.4    672542.79    3885766.2    1758197.9 
   48600        12.15    11948.663     13544364    3282330.3       657412    3939742.3    1750291.7 
   48700       12.175    11606.545     13745419    3355845.6    638588.73    3994434.3    1742385.5 
   48800         12.2    11326.172     13948132    3427450.3    623162.68      4050613    1734479.2 
   48900       12.225    11077.412     14151058    3497802.7    609476.01    4107278.7      1726573 
   49000        12.25    10932.815     14350658    3563205.8    601520.29    4164726.1    1718666.8 
   49100       12.275    10789.403     14549763    3629611.4    593629.84    4223241.3    1710760.5 
   49200         12.3    10743.945     14751941    3690690.4    591128.72    4281819.1    1702854.3 
   49300       12.325    10655.642     14959933    3755100.4    586270.31    4341370.7    1694948.1 
   49400        12.35    10528.836     15171054    3821816.9    579293.52    4401110.4    1687041.9 
   49500       12.375    10387.845     15383557    3889948.4     571536.2    4461484.6    1679135.6 
   49600         12.4    10259.226     15601916    3959312.3    564459.65    4523771.9    1671229.4 
   49700       12.425     10170.44     15828197    4029684.7    559574.66    4589259.3    1663323.2 
   49800        12.45    10193.492     16051529    4100368.8    560842.95    4661211.7    1655416.9 
   49900       12.475    10313.882     16289740    4173694.2    567466.82      4741161    1647510.7 
   50000         12.5    10489.489     16541550    4252415.7    577128.63    4829544.3    1639604.5 
Loop time of 455.604 on 24 procs for 50000 steps with 425652 atoms

Performance: 2.370 ns/day, 10.125 hours/ns, 109.744 timesteps/s
99.8% CPU use with 24 MPI tasks x 1 OpenMP threads

MPI task timing breakdown:
Section |  min time  |  avg time  |  max time  |%varavg| %total
---------------------------------------------------------------
Pair    | 208.72     | 226.66     | 241.55     |  58.0 | 49.75
Neigh   | 0.13111    | 0.14176    | 0.15405    |   1.7 |  0.03
Comm    | 44.577     | 46.888     | 48.726     |  19.2 | 10.29
Output  | 13.881     | 13.886     | 13.988     |   0.6 |  3.05
Modify  | 134.8      | 148.06     | 165.54     |  68.3 | 32.50
Other   |            | 19.97      |            |       |  4.38

Nlocal:        17735.5 ave       17909 max       17531 min
Histogram: 4 4 0 0 0 1 4 4 4 3
Nghost:        32866.3 ave       33044 max       32583 min
Histogram: 7 1 0 0 0 0 0 1 8 7
Neighs:         0.00000 ave           0 max           0 min
Histogram: 24 0 0 0 0 0 0 0 0 0

Total # of neighbors = 0
Ave neighs/atom = 0.0000000
Neighbor list builds = 751
Dangerous builds = 0


---------------------------------------------------------------------
      Device Time Info (average): 
---------------------------------------------------------------------
Data Transfer:   21.3383 s.
Neighbor copy:   0.0302 s.
Neighbor build:  3.8485 s.
Force calc:      137.0103 s.
Device Overhead: 67.2618 s.
Average split:   1.0000.
Lanes / atom:    4.
Vector width:    32.
Max Mem / Proc:  109.63 MB.
CPU Neighbor:    0.5052 s.
CPU Cast/Pack:   19.7178 s.
CPU Driver_Time: 0.9277 s.
CPU Idle_Time:   67.0680 s.
---------------------------------------------------------------------

Total wall time: 0:07:45
