LAMMPS (29 Sep 2021)
  using 1 OpenMP thread(s) per MPI task
Reading restart file ...
  restart file = 29 Sep 2021, LAMMPS = 29 Sep 2021
  restoring atom style atomic from restart
  orthogonal box = (0.0000000 -0.25955186 -13.543752) to (101.64306 101.90262 544.61575)
  2 by 3 by 16 MPI processor grid
  pair style eam/alloy stores no restart info
  425652 atoms
  read_restart CPU = 0.197 seconds
Resetting global fix info from restart file:
  fix style: npt, fix ID: 2
All restart file global fix info was re-assigned
Unused restart file peratom fix info:
  fix style: STORE, fix ID: spatialbins_COMPUTE_STORE
Neighbor list info ...
  update every 1 steps, delay 10 steps, check yes
  max neighbors/atom: 2000, page size: 100000
  master list distance cutoff = 8.28721
  ghost atom cutoff = 8.28721
  binsize = 4.143605, bins = 25 25 135
  1 neighbor lists, perpetual/occasional/extra = 1 0 0
  (1) pair eam/alloy, perpetual
      attributes: half, newton on
      pair build: half/bin/atomonly/newton
      stencil: half/bin/3d
      bin: standard
Setting up Verlet run ...
  Unit style    : metal
  Current step  : 11000294
  Time step     : 0.00025
Per MPI rank memory allocation (min/avg/max) = 4.319 | 5.491 | 6.362 Mbytes
Step Time Temp PotEng E_pair TotEng Press Volume Lx Ly Lz CPULeft 
11000294            0    299.99152   -1767478.8   -1767478.8   -1750973.3    2685.2558    5795970.6    101.64306    102.16217     558.1595            0 
11010000       2.4265    300.13932   -1767453.4   -1767453.4   -1750939.9    2611.8345    5796403.5    101.64306    102.15558    558.23719    16292.234 
11020000       4.9265    300.18909   -1767466.2   -1767466.2   -1750949.9    2557.6678    5796656.7    101.64306    102.14921    558.29637    16195.559 
11030000       7.4265    299.95597   -1767448.1   -1767448.1   -1750944.6    2569.0914    5797008.6    101.64306    102.16169    558.26209    16060.305 
11040000       9.9265    299.92517   -1767470.4   -1767470.4   -1750968.6    2621.2407    5796832.7    101.64306    102.15157    558.30042    15895.941 
11050000      12.4265    300.30073   -1767450.6   -1767450.6   -1750928.1    2594.0016    5797066.4    101.64306    102.14736    558.34596    15735.418 
11060000      14.9265    300.36245     -1767465     -1767465   -1750939.2    2653.0278    5797323.1    101.64306    102.15813    558.31181    15573.246 
11070000      17.4265    299.95003   -1767426.7   -1767426.7   -1750923.5     2584.805    5797415.7    101.64306    102.15587    558.33307    15406.067 
11080000      19.9265    299.80984   -1767437.9   -1767437.9   -1750942.4    2582.2857    5797810.9    101.64306    102.15403    558.38118    15239.625 
11090000      22.4265     300.1435   -1767463.6   -1767463.6   -1750949.8       2679.5    5797446.3    101.64306    102.15274    558.35316    15081.246 
11100000      24.9265    299.50025   -1767437.1   -1767437.1   -1750958.7    2634.1729    5797499.5    101.64306    102.14818    558.38318    14917.906 
11110000      27.4265    300.19406   -1767426.3   -1767426.3   -1750909.7     2663.196    5797847.6    101.64306    102.16052    558.34925    14749.744 
11120000      29.9265    299.86852   -1767442.5   -1767442.5   -1750943.8    2701.8668    5798107.3    101.64306    102.16383    558.35618    14585.417 
11130000      32.4265    299.71458   -1767451.6   -1767451.6   -1750961.4    2626.0793    5797959.7    101.64306    102.15942    558.36606    14419.222 
11140000      34.9265     299.9772   -1767449.9   -1767449.9   -1750945.2    2522.9475    5798688.3    101.64306    102.15731    558.44777    14257.662 
11150000      37.4265    299.74251   -1767449.2   -1767449.2   -1750957.5    2626.0998    5798709.8    101.64306    102.16101    558.42964    14093.817 
11160000      39.9265    299.56434   -1767459.3   -1767459.3   -1750977.3    2666.5923    5798226.1    101.64306    102.14767    558.45599    13928.844 
11170000      42.4265    299.34757   -1767444.3   -1767444.3   -1750974.3    2708.2138      5798147    101.64306    102.16052    558.37812    13764.924 
11180000      44.9265    299.68477   -1767428.6   -1767428.6   -1750940.1    2627.3856    5799112.1    101.64306     102.1564    558.49358    13600.289 
11190000      47.4265    299.70163   -1767469.4   -1767469.4   -1750979.9    2606.6041      5798895    101.64306    102.15229    558.49515    13434.047 
11200000      49.9265    299.41213   -1767442.2   -1767442.2   -1750968.6    2558.4843    5799094.3    101.64306    102.15666    558.49041    13269.948 
11210000      52.4265    299.98816   -1767454.4   -1767454.4   -1750949.2    2668.2071    5799217.3    101.64306    102.15931    558.48779    13104.926 
11220000      54.9265     300.2104   -1767452.9   -1767452.9   -1750935.4    2646.8607    5799630.3    101.64306    102.15367    558.55842     12939.57 
11230000      57.4265     300.0392   -1767443.8   -1767443.8   -1750935.7    2588.9764      5799845    101.64306     102.1558    558.56741    12773.576 
11240000      59.9265    299.99173   -1767448.5   -1767448.5     -1750943    2657.3107    5799398.4    101.64306    102.16747     558.4606    12611.573 
11250000      62.4265    300.31511   -1767464.7   -1767464.7   -1750941.4    2676.3194      5799885    101.64306    102.16424    558.52516    12446.517 
11260000      64.9265      300.267     -1767443     -1767443   -1750922.4    2569.5285    5800338.9    101.64306    102.15246    558.63328    12280.839 
11270000      67.4265    299.83443   -1767438.2   -1767438.2   -1750941.4    2554.2327      5800421    101.64306    102.15495    558.62758    12115.842 
11280000      69.9265     299.9846   -1767450.9   -1767450.9   -1750945.8    2645.6075    5800133.6    101.64306    102.15163    558.61801    11950.828 
11290000      72.4265     299.5914   -1767445.5   -1767445.5   -1750962.1    2644.0596    5800750.1    101.64306     102.1658    558.59989    11783.721 
11300000      74.9265     299.5062   -1767448.8   -1767448.8     -1750970    2634.6999    5800387.4    101.64306    102.17035    558.54009    11617.705 
11310000      77.4265    300.15264   -1767457.8   -1767457.8   -1750943.5    2561.3155    5800714.2    101.64306    102.15863    558.63567    11452.639 
11320000      79.9265    300.26154     -1767444     -1767444   -1750923.7    2642.9165    5800911.7    101.64306    102.16224    558.63495    11286.747 
11330000      82.4265    299.68184   -1767421.7   -1767421.7   -1750933.3       2576.9    5801413.2    101.64306    102.15648    558.71473    11121.155 
11340000      84.9265    299.99501   -1767460.6   -1767460.6   -1750954.9    2564.7981    5801149.2    101.64306    102.16196    558.65934    10954.699 
11350000      87.4265    300.56956   -1767464.5   -1767464.5   -1750927.2    2534.6609    5801694.7    101.64306     102.1555     558.7472    10788.041 
11360000      89.9265     300.0021   -1767444.9   -1767444.9   -1750938.9    2564.1233    5801557.2    101.64306    102.15257    558.74997    10621.926 
11370000      92.4265    299.71112   -1767443.2   -1767443.2   -1750953.2     2609.564    5801002.6    101.64306    102.15872    558.66294    10455.673 
11380000      94.9265    300.38404   -1767456.5   -1767456.5   -1750929.4     2606.419    5801708.2    101.64306    102.16426    558.70058    10289.607 
11390000      97.4265    300.36412   -1767473.2   -1767473.2   -1750947.2    2566.5721    5802342.6    101.64306     102.1538    558.81892    10124.612 
11400000      99.9265    300.50424   -1767463.1   -1767463.1   -1750929.5    2601.5961    5802058.2    101.64306    102.15866    558.76496    9958.4404 
11410000     102.4265    300.22735   -1767440.5   -1767440.5   -1750922.1    2691.6585    5801628.1    101.64306     102.1631    558.69922    9792.0238 
11420000     104.9265    300.26238   -1767476.7   -1767476.7   -1750956.4    2607.6441    5802452.7    101.64306    102.15091     558.8453    9625.4417 
11430000     107.4265    299.44478   -1767448.6   -1767448.6   -1750973.2    2545.9611    5802461.5    101.64306    102.16061    558.79309    9459.6421 
11440000     109.9265    300.38139   -1767459.2   -1767459.2   -1750932.3    2644.1833    5802272.3    101.64306    102.15716    558.79374    9294.5287 
11450000     112.4265    299.98184   -1767463.8   -1767463.8   -1750958.9     2699.336    5802318.1    101.64306    102.15523    558.80873    9128.7545 
11460000     114.9265    299.41371   -1767446.4   -1767446.4   -1750972.8    2649.1283      5802526    101.64306    102.16233    558.78991    8962.9787 
11470000     117.4265    299.94645   -1767445.7   -1767445.7   -1750942.7      2584.73    5802800.4    101.64306    102.16224    558.81681    8796.9099 
11480000     119.9265    299.53252   -1767443.1   -1767443.1   -1750962.9     2534.307      5803325    101.64306    102.16094    558.87446     8630.551 
11490000     122.4265    300.24756   -1767459.7   -1767459.7   -1750940.2    2610.9622    5802980.8    101.64306    102.15478    558.87503    8464.1454 
11500000     124.9265    299.92313   -1767460.6   -1767460.6   -1750958.9    2675.5996    5803299.3    101.64306    102.14794    558.94309    8297.9793 
11510000     127.4265    300.19652   -1767472.7   -1767472.7     -1750956    2698.0463    5803032.7    101.64306    102.15402    558.88417    8132.1515 
11520000     129.9265    300.19462   -1767457.8   -1767457.8   -1750941.2    2701.7702    5803105.4    101.64306    102.14786    558.92487    7966.2663 
11530000     132.4265    299.76559   -1767457.4   -1767457.4   -1750964.4    2681.2519    5803218.4    101.64306    102.15647    558.88862    7800.1596 
11540000     134.9265    299.72804   -1767446.7   -1767446.7   -1750955.7    2635.5425    5803800.5    101.64306    102.15124    558.97333     7633.858 
11550000     137.4265    300.37484   -1767473.8   -1767473.8   -1750947.3    2585.3432    5804290.8    101.64306    102.14815    559.03745    7467.3837 
11560000     139.9265    299.86153   -1767469.9   -1767469.9   -1750971.6    2554.5552      5804630    101.64306    102.15726    559.02029    7300.7053 
11570000     142.4265    299.59352   -1767466.9   -1767466.9   -1750983.4    2600.9177    5804265.3    101.64306    102.16398    558.94836    7134.6499 
11580000     144.9265    300.16046   -1767463.5   -1767463.5   -1750948.8    2599.8637    5804204.2    101.64306    102.15928    558.96824    6968.6003 
11590000     147.4265    299.54867   -1767445.5   -1767445.5   -1750964.4    2659.8017      5804731    101.64306     102.1582    559.02486     6802.507 
11600000     149.9265    299.82985   -1767462.7   -1767462.7   -1750966.2    2572.2546    5805175.8    101.64306    102.15774     559.0702    6636.4866 
11610000     152.4265    300.39011   -1767470.2   -1767470.2   -1750942.8    2548.8457    5805228.5    101.64306    102.15215    559.10585     6470.167 
11620000     154.9265    300.09438   -1767450.3   -1767450.3   -1750939.2    2605.8798    5805195.6    101.64306    102.15438     559.0905    6304.3782 
11630000     157.4265    300.01723     -1767467     -1767467   -1750960.1    2614.0475    5805212.9    101.64306    102.15558     559.0856    6138.3574 
11640000     159.9265    299.96313     -1767459     -1767459   -1750955.1     2675.799    5804964.1    101.64306    102.15592    559.05979    5972.3507 
11650000     162.4265    300.17584   -1767465.2   -1767465.2   -1750949.6    2702.6273    5805313.7    101.64306    102.16152    559.06278    5806.4944 
11660000     164.9265     300.2189     -1767453     -1767453     -1750935    2578.3793    5805834.5    101.64306    102.15684    559.13859    5640.7328 
11670000     167.4265    300.09474     -1767467     -1767467   -1750955.9    2592.5694    5805604.8    101.64306    102.15932    559.10288    5474.8125 
11680000     169.9265    300.14338   -1767449.9   -1767449.9   -1750936.1    2624.6811    5805733.3    101.64306    102.14417    559.19819    5308.5044 
11690000     172.4265    298.77892   -1767429.7   -1767429.7   -1750990.9     2652.367    5805949.8    101.64306    102.15586    559.15502    5142.4296 
11700000     174.9265    300.19053   -1767466.7   -1767466.7   -1750950.3    2638.8947    5806219.3    101.64306    102.16068    559.15459    4976.3769 
11710000     177.4265    300.07073   -1767437.7   -1767437.7   -1750927.9    2607.1891    5806444.5    101.64306    102.14974    559.23618    4810.1613 
11720000     179.9265    300.18077   -1767451.8   -1767451.8   -1750935.9    2710.6716    5806067.3    101.64306    102.15773    559.15609     4644.161 
11730000     182.4265    299.87969   -1767453.8   -1767453.8   -1750954.6    2717.1226    5806228.5    101.64306    102.15754    559.17269     4478.254 
11740000     184.9265     300.1374   -1767464.9   -1767464.9   -1750951.4    2707.3664    5806003.6    101.64306    102.14794    559.20355    4312.1334 
11750000     187.4265    300.13787   -1767454.5   -1767454.5     -1750941    2723.1963    5806254.8    101.64306    102.15098    559.21112    4145.9674 
11760000     189.9265    300.02537   -1767465.3   -1767465.3     -1750958    2695.2157    5806673.6    101.64306    102.15994    559.20241     3979.759 
11770000     192.4265    299.85061   -1767439.8   -1767439.8   -1750942.1    2664.6905    5806639.5    101.64306    102.16501    559.17139    3813.8436 
11780000     194.9265     299.7049   -1767463.7   -1767463.7   -1750974.1    2682.9597    5806948.4    101.64306    102.15277    559.26814    3647.7777 
11790000     197.4265    300.41071   -1767459.5   -1767459.5   -1750930.9    2681.1592    5806945.8    101.64306    102.16046    559.22576    3481.8965 
11800000     199.9265      300.129     -1767452     -1767452     -1750939    2678.7758    5807005.4    101.64306     102.1504    559.28658    3315.9706 
11810000     202.4265    299.92195   -1767468.7   -1767468.7   -1750967.1    2623.4174    5807248.4    101.64306    102.15996    559.25765    3150.0366 
11820000     204.9265    299.96519   -1767459.6   -1767459.6   -1750955.6    2653.6347    5807463.1    101.64306    102.15607    559.29961    2984.1987 
11830000     207.4265    300.38158   -1767474.3   -1767474.3   -1750947.4    2594.0099    5807775.4    101.64306    102.15789    559.31972    2818.3074 
11840000     209.9265    300.09204   -1767449.5   -1767449.5   -1750938.6    2583.1132    5808179.3    101.64306    102.15949     559.3499    2652.4639 
11850000     212.4265    300.23659   -1767477.4   -1767477.4   -1750958.5    2602.3983    5808115.7    101.64306    102.16427    559.31761    2486.6759 
11860000     214.9265    300.21989   -1767440.5   -1767440.5   -1750922.5    2614.8586    5808071.4    101.64306    102.15741    559.35086    2320.9563 
11870000     217.4265     299.8986   -1767459.6   -1767459.6   -1750959.3    2720.8274    5807667.2    101.64306    102.17098    559.23765    2155.1969 
11880000     219.9265    299.68293   -1767474.3   -1767474.3   -1750985.9    2677.2624    5808117.9    101.64306    102.15942    559.34433    1989.5117 
11890000     222.4265    300.19948   -1767471.8   -1767471.8   -1750954.9    2617.6705    5808462.5    101.64306    102.14846    559.43753    1823.8336 
11900000     224.9265    300.18643   -1767436.6   -1767436.6   -1750920.4    2655.0424    5808673.1    101.64306    102.16239    559.38158    1658.1501 
11910000     227.4265    299.69243   -1767454.6   -1767454.6   -1750965.6    2617.1901    5808940.5    101.64306    102.16269    559.40568    1492.4748 
11920000     229.9265    299.97115   -1767460.5   -1767460.5   -1750956.2    2612.6882      5808530    101.64306    102.15773    559.39331    1326.8615 
11930000     232.4265    300.06871   -1767448.7   -1767448.7     -1750939    2611.5248    5809143.7    101.64306    102.16053    559.43703    1161.3104 
11940000     234.9265    300.11191   -1767468.9   -1767468.9   -1750956.8    2586.4074    5809261.1    101.64306    102.14765    559.51891    995.87266 
11950000     237.4265    300.09393   -1767474.8   -1767474.8   -1750963.7    2679.8881      5808922    101.64306    102.14978    559.47456    830.50152 
11960000     239.9265    300.18191   -1767459.1   -1767459.1   -1750943.1    2673.4716    5809138.8    101.64306    102.15895    559.44522    665.19859 
11970000     242.4265    299.94018   -1767433.7   -1767433.7   -1750931.1    2652.7266    5809926.8    101.64306    102.16807    559.47119    499.97312 
11980000     244.9265    299.75887   -1767466.7   -1767466.7     -1750974    2587.7105    5809450.5    101.64306    102.15457    559.49923    334.83174 
11990000     247.4265    299.74172     -1767449     -1767449   -1750957.2    2647.8336    5809738.5    101.64306    102.15595    559.51944    169.79078 
12000000     249.9265    299.60621   -1767427.9   -1767427.9   -1750943.6    2654.3799    5809952.5    101.64306    102.16568    559.48672    4.8481718 
12000294          250    299.99036   -1767466.8   -1767466.8   -1750961.4    2613.5997      5809927    101.64306    102.15819    559.52529            0 
Loop time of 16490.3 on 96 procs for 1000000 steps with 425652 atoms

Performance: 1.310 ns/day, 18.323 hours/ns, 60.642 timesteps/s
100.0% CPU use with 96 MPI tasks x 1 OpenMP threads

MPI task timing breakdown:
Section |  min time  |  avg time  |  max time  |%varavg| %total
---------------------------------------------------------------
Pair    | 6579       | 12608      | 15515      |2073.7 | 76.46
Neigh   | 4.2539     | 23.085     | 32.813     | 157.7 |  0.14
Comm    | 426.5      | 2274.8     | 7604.5     |4323.6 | 13.79
Output  | 1.8218     | 1.8229     | 1.8262     |   0.1 |  0.01
Modify  | 451.46     | 1511.3     | 2723.2     |1682.2 |  9.16
Other   |            | 71.34      |            |       |  0.43

Nlocal:        4433.88 ave        5556 max        1365 min
Histogram: 12 0 0 0 0 0 12 19 25 28
Nghost:        8505.79 ave       10787 max        3978 min
Histogram: 12 0 0 0 0 2 29 25 16 12
Neighs:        429422.0 ave      595164 max       96905 min
Histogram: 7 5 0 0 9 9 12 16 14 24

Total # of neighbors = 41224556
Ave neighs/atom = 96.850375
Neighbor list builds = 2518
Dangerous builds = 0
System init for write_restart ...
System init for write_data ...
Total wall time: 4:34:51
