LAMMPS (29 Sep 2021)
  using 1 OpenMP thread(s) per MPI task
Reading restart file ...
  restart file = 29 Sep 2021, LAMMPS = 29 Sep 2021
  restoring atom style atomic from restart
  orthogonal box = (-0.59085218 -0.61596255 0.0000000) to (101.66352 101.68863 613.55700)
  2 by 3 by 16 MPI processor grid
  pair style hybrid/overlay stores no restart info
  438002 atoms
  read_restart CPU = 0.183 seconds
Resetting global fix info from restart file:
  fix style: npt, fix ID: 2

CITE-CITE-CITE-CITE-CITE-CITE-CITE-CITE-CITE-CITE-CITE-CITE-CITE

Your simulation uses code contributions which should be cited:
- @article{cjiang2012
The log file lists these citations in BibTeX format.

CITE-CITE-CITE-CITE-CITE-CITE-CITE-CITE-CITE-CITE-CITE-CITE-CITE

All restart file global fix info was re-assigned
Unused restart file peratom fix info:
  fix style: STORE, fix ID: spatialbins_COMPUTE_STORE
Neighbor list info ...
  update every 1 steps, delay 10 steps, check yes
  max neighbors/atom: 2000, page size: 100000
  master list distance cutoff = 8.28721
  ghost atom cutoff = 8.28721
  binsize = 4.143605, bins = 25 25 149
  3 neighbor lists, perpetual/occasional/extra = 3 0 0
  (1) pair eam/alloy, perpetual, skip from (3)
      attributes: half, newton on
      pair build: skip
      stencil: none
      bin: none
  (2) pair edip/multi, perpetual
      attributes: full, newton on
      pair build: full/bin/atomonly
      stencil: full/bin/3d
      bin: standard
  (3) neighbor class addition, perpetual, half/full from (2)
      attributes: half, newton on
      pair build: halffull/newton
      stencil: none
      bin: none
Setting up Verlet run ...
  Unit style    : metal
  Current step  : 11000144
  Time step     : 0.0001
Per MPI rank memory allocation (min/avg/max) = 4.711 | 11.99 | 17.57 Mbytes
Step Time Temp PotEng E_pair TotEng Press Volume Lx Ly Lz CPULeft 
11000144            0    300.15662     -1896952     -1896952   -1879958.3   -234.08071    6418476.3    102.25437    102.30459      613.557            0 
11010000       0.9856    299.75128   -1896968.7   -1896968.7     -1879998    16.775374    6417805.9    102.25674    102.29154      613.557    25377.359 
11020000       1.9856    300.06813   -1896945.2   -1896945.2   -1879956.5    277.09372    6417167.7    102.24632    102.29179      613.557    25129.685 
11030000       2.9856    300.01768   -1896988.2   -1896988.2   -1880002.4   -60.988799    6417969.7    102.24559     102.3053      613.557    24867.516 
11040000       3.9856    299.83619   -1897021.1   -1897021.1   -1880045.6    300.97815      6417813    102.24846    102.29994      613.557    24603.641 
11050000       4.9856    299.80042   -1897029.1   -1897029.1   -1880055.6   -141.45221      6418002    102.25376    102.29765      613.557    24374.537 
11060000       5.9856    299.64265   -1896982.9   -1896982.9   -1880018.4   -93.357453    6418157.3    102.24542    102.30847      613.557    24133.774 
11070000       6.9856    300.04337   -1897002.1   -1897002.1   -1880014.8    223.30416    6418252.8    102.25608    102.29932      613.557    23878.602 
11080000       7.9856    300.17797   -1896963.6   -1896963.6   -1879968.7    217.82967    6418056.4     102.2517    102.30058      613.557    23624.996 
11090000       8.9856    299.83601   -1896954.3   -1896954.3   -1879978.8   -38.382034    6419125.4    102.25911     102.3102      613.557    23369.642 
11100000       9.9856    299.97277     -1896997     -1896997   -1880013.7    175.30479    6418059.7    102.25532    102.29701      613.557      23113.1 
11110000      10.9856    300.03277   -1896949.2   -1896949.2   -1879962.5   -31.819724    6418893.5    102.26203    102.30358      613.557    22854.478 
11120000      11.9856    299.73343   -1896981.2   -1896981.2   -1880011.4    129.06041    6417945.6     102.2482    102.30231      613.557    22601.145 
11130000      12.9856    299.93672   -1896972.4   -1896972.4   -1879991.1   -134.60826    6418213.9    102.25995    102.29483      613.557    22350.607 
11140000      13.9856     299.8617   -1896953.6   -1896953.6   -1879976.6    2.6980916    6417493.4    102.24643    102.29687      613.557    22095.223 
11150000      14.9856    299.80778   -1896987.6   -1896987.6   -1880013.6    293.73237    6417558.4    102.25237    102.29197      613.557    21841.172 
11160000      15.9856    299.94632   -1896981.1   -1896981.1   -1879999.3    131.23828    6417185.5    102.23842    102.29998      613.557    21583.904 
11170000      16.9856    300.44758   -1896948.1   -1896948.1   -1879937.9   -14.777825    6417763.9    102.25207    102.29554      613.557    21321.383 
11180000      17.9856    300.14459   -1896948.6   -1896948.6   -1879955.6   -122.95512    6417490.8     102.2431    102.30016      613.557    21064.188 
11190000      18.9856    299.99994     -1896954     -1896954   -1879969.2   -279.91374    6417506.6    102.24649    102.29703      613.557    20804.634 
11200000      19.9856    300.08767   -1896961.5   -1896961.5   -1879971.7   -132.99339    6417471.1    102.24248    102.30048      613.557    20546.727 
11210000      20.9856    299.93839   -1897006.9   -1897006.9   -1880025.6    9.2146237    6416921.7    102.23809     102.2961      613.557    20287.833 
11220000      21.9856    299.90521   -1896998.7   -1896998.7   -1880019.2   -69.652093    6417654.6    102.25538    102.29049      613.557    20030.782 
11230000      22.9856    300.04363   -1896989.5   -1896989.5   -1880002.2   -78.750181    6417436.3    102.24825    102.29415      613.557    19774.346 
11240000      23.9856    300.10017   -1896968.6   -1896968.6   -1879978.1   -170.53739      6416756    102.23994    102.29161      613.557    19515.652 
11250000      24.9856    300.11783   -1896938.6   -1896938.6   -1879947.1   -88.918965    6416728.6    102.23486    102.29626      613.557    19258.993 
11260000      25.9856    300.24351   -1896961.6   -1896961.6     -1879963    61.069712    6417372.1    102.24191    102.29947      613.557     19000.98 
11270000      26.9856    300.11465   -1896962.2   -1896962.2   -1879970.8    -197.5056    6417323.6     102.2478     102.2928      613.557    18743.699 
11280000      27.9856    300.14777   -1896978.3   -1896978.3   -1879985.1    53.406382    6416866.6    102.24732      102.286      613.557    18487.088 
11290000      28.9856    300.32658   -1896975.4   -1896975.4     -1879972   -174.99809    6417480.8    102.24366    102.29944      613.557    18230.046 
11300000      29.9856    300.22824   -1896930.3   -1896930.3   -1879932.6    31.032859    6417210.8    102.24571    102.29309      613.557    17974.171 
11310000      30.9856     299.9452     -1896990     -1896990   -1880008.3    22.689311    6417527.3      102.249    102.29485      613.557    17718.103 
11320000      31.9856    299.74191   -1896979.9   -1896979.9   -1880009.7    13.109554    6418330.8    102.25292    102.30372      613.557    17460.516 
11330000      32.9856    300.14415   -1896965.1   -1896965.1   -1879972.2   -51.488151    6418020.9    102.25797    102.29374      613.557    17203.604 
11340000      33.9856    300.09186   -1896978.4   -1896978.4   -1879988.4   -93.483459    6417763.3    102.25352    102.29408      613.557    16945.553 
11350000      34.9856    299.91714   -1896932.4   -1896932.4   -1879952.2    -117.5494    6418579.6    102.25584    102.30477      613.557    16691.013 
11360000      35.9856    299.88902   -1896973.9   -1896973.9   -1879995.4    34.293606    6417867.7    102.24652    102.30275      613.557    16435.549 
11370000      36.9856    299.86343   -1896977.5   -1896977.5   -1880000.4    51.388299    6417261.6    102.24852    102.29109      613.557    16177.587 
11380000      37.9856    299.81234   -1896978.8   -1896978.8   -1880004.6   -186.01674    6417782.2    102.25153    102.29637      613.557    15921.712 
11390000      38.9856    299.98862   -1896977.7   -1896977.7   -1879993.6    6.0043714    6418329.2    102.25544    102.30118      613.557    15665.684 
11400000      39.9856    300.04299   -1896950.9   -1896950.9   -1879963.7    45.283454    6417718.9    102.25364    102.29326      613.557    15408.772 
11410000      40.9856     300.0748   -1896974.1   -1896974.1     -1879985    105.51889    6417719.8    102.24928    102.29763      613.557    15151.758 
11420000      41.9856    300.01073   -1896981.1   -1896981.1   -1879995.6   -99.953802    6418128.5    102.25868    102.29474      613.557    14896.169 
11430000      42.9856    299.83527   -1896995.7   -1896995.7   -1880020.2    123.25625    6417104.2    102.25606    102.28103      613.557    14640.407 
11440000      43.9856    299.88182   -1896957.6   -1896957.6   -1879979.5   -161.82954    6418056.4    102.25681    102.29546      613.557    14382.559 
11450000      44.9856     300.0013   -1896969.2   -1896969.2   -1879984.3    8.1790454    6417232.8    102.23944    102.29971      613.557    14125.437 
11460000      45.9856    299.93434   -1896979.9   -1896979.9   -1879998.8   -73.915605    6417468.2    102.25054    102.29236      613.557     13868.92 
11470000      46.9856    299.74455   -1896981.3   -1896981.3   -1880010.9   -328.73151      6417804    102.24826    102.29999      613.557    13611.559 
11480000      47.9856    300.11805   -1896941.8   -1896941.8   -1879950.3   -196.43174    6417442.1    102.24483    102.29766      613.557    13355.019 
11490000      48.9856    300.05076   -1896960.2   -1896960.2   -1879972.5    13.347494    6417495.3    102.24768    102.29566      613.557    13098.343 
11500000      49.9856    299.78174     -1897001     -1897001   -1880028.6   -154.17118    6417467.9    102.24934    102.29355      613.557    12840.356 
11510000      50.9856    300.02664   -1896992.7   -1896992.7   -1880006.3   -29.104811    6417180.5    102.25059    102.28772      613.557    12583.796 
11520000      51.9856    299.94351   -1896987.8   -1896987.8   -1880006.1     247.1474    6416183.8    102.23222    102.29021      613.557    12327.653 
11530000      52.9856    300.24882   -1896975.5   -1896975.5   -1879976.6   -36.859046    6417519.1    102.23793    102.30579      613.557    12070.813 
11540000      53.9856    300.03737   -1896987.5   -1896987.5   -1880000.6    38.200757    6417252.7    102.24279    102.29668      613.557    11813.398 
11550000      54.9856    299.88244   -1896972.4   -1896972.4   -1879994.3    250.06032    6417235.6    102.25129     102.2879      613.557    11556.621 
11560000      55.9856     299.9278     -1896960     -1896960   -1879979.2   -106.32985    6416970.3    102.23756    102.29741      613.557    11300.256 
11570000      56.9856    300.00789   -1896945.3   -1896945.3     -1879960    23.333204    6417613.3     102.2482    102.29701      613.557    11043.499 
11580000      57.9856    299.96704   -1896995.1   -1896995.1   -1880012.1    74.265491    6417728.2    102.24979    102.29726      613.557    10786.496 
11590000      58.9856    300.32043   -1896969.2   -1896969.2   -1879966.3   -2.4494609    6417734.9    102.25377    102.29338      613.557    10530.247 
11600000      59.9856    299.83467   -1896990.3   -1896990.3   -1880014.8    45.090803    6418309.3    102.25419    102.30212      613.557        10274 
11610000      60.9856    300.05063   -1896982.6   -1896982.6     -1879995   -19.098099    6418868.9    102.26502     102.3002      613.557     10017.47 
11620000      61.9856    300.09454   -1896964.6   -1896964.6   -1879974.4   -13.851013    6417297.2    102.24485    102.29533      613.557    9760.8719 
11630000      62.9856    300.09102   -1896986.3   -1896986.3   -1879996.4     -3.44544    6418424.6    102.25375    102.30439      613.557    9504.3418 
11640000      63.9856    300.07571   -1896932.9   -1896932.9   -1879943.8   0.82094093    6418754.6     102.2555     102.3079      613.557    9247.6705 
11650000      64.9856     300.0535   -1897006.7   -1897006.7   -1880018.9   -137.89041    6418556.9    102.25054    102.30971      613.557    8990.9793 
11660000      65.9856    299.79315   -1897000.3   -1897000.3   -1880027.2   -261.11131    6417935.9    102.24904    102.30132      613.557    8734.3438 
11670000      66.9856    299.70546   -1897001.7   -1897001.7   -1880033.5   -151.87992    6418652.8    102.26177    102.30001      613.557    8478.0409 
11680000      67.9856    300.01136   -1896999.1   -1896999.1   -1880013.6   -69.114498    6418267.4    102.25881    102.29683      613.557    8221.3284 
11690000      68.9856    300.08373   -1896978.1   -1896978.1   -1879988.5   -163.56704    6418471.9    102.25571    102.30319      613.557    7964.6104 
11700000      69.9856    300.19171   -1896972.2   -1896972.2   -1879976.5    -130.3062    6418628.8    102.25504    102.30636      613.557    7708.1275 
11710000      70.9856    299.99979   -1896992.3   -1896992.3   -1880007.4    217.71418    6416655.4    102.24123    102.28872      613.557    7451.4043 
11720000      71.9856    300.01132   -1896978.6   -1896978.6   -1879993.1   -188.72232    6417889.3    102.26436    102.28525      613.557    7194.7616 
11730000      72.9856    299.75236     -1896979     -1896979   -1880008.2    148.03816    6417418.3    102.25904    102.28306      613.557    6937.6952 
11740000      73.9856    300.24631   -1896997.9   -1896997.9   -1879999.1    53.303946    6416844.6    102.25125    102.28171      613.557    6681.0183 
11750000      74.9856    299.90854   -1896974.4   -1896974.4   -1879994.7    10.368835    6417300.7    102.25068    102.28955      613.557    6424.3155 
11760000      75.9856    300.25533   -1896981.9   -1896981.9   -1879982.7   -296.22493    6418231.5    102.25283    102.30224      613.557     6167.571 
11770000      76.9856    300.24961   -1896979.4   -1896979.4   -1879980.4   -61.135791    6417708.2    102.24858    102.29815      613.557    5910.6369 
11780000      77.9856    300.20307     -1896957     -1896957   -1879960.7   -116.00366    6418181.9    102.25694    102.29734      613.557    5653.6683 
11790000      78.9856    299.89738   -1896966.1   -1896966.1   -1879987.1    91.135432    6416446.2    102.24199    102.28463      613.557    5396.7134 
11800000      79.9856      300.052   -1896982.5   -1896982.5   -1879994.7   -78.200626      6416964    102.23848    102.29639      613.557    5140.0802 
11810000      80.9856     300.1677   -1896971.4   -1896971.4   -1879977.1     87.59549    6417095.9    102.24498    102.29198      613.557    4883.2812 
11820000      81.9856    300.45223   -1896973.8   -1896973.8   -1879963.4  -0.69556907    6417758.9    102.24968    102.29785      613.557    4626.3598 
11830000      82.9856    300.05972   -1896990.7   -1896990.7   -1880002.5   -6.9515066    6417871.6    102.25504    102.29429      613.557    4369.4115 
11840000      83.9856     300.1171   -1896959.7   -1896959.7   -1879968.2   -316.65162    6417905.1    102.24654    102.30332      613.557    4112.6695 
11850000      84.9856    299.95936   -1896973.8   -1896973.8   -1879991.3   -4.2244323    6418349.6    102.25402    102.30293      613.557    3855.8656 
11860000      85.9856    299.93378   -1896959.3   -1896959.3   -1879978.3   -250.85035    6418919.8    102.25896    102.30707      613.557    3599.0116 
11870000      86.9856    299.74516   -1897016.3   -1897016.3   -1880045.9   -87.912918    6418472.9    102.25413    102.30478      613.557    3342.3276 
11880000      87.9856    299.70212   -1896984.9   -1896984.9   -1880016.9   -101.88836    6418209.5    102.25492    102.29979      613.557    3085.5665 
11890000      88.9856    300.32447   -1896987.2   -1896987.2     -1879984    199.13809    6418038.8    102.25223    102.29976      613.557    2828.7786 
11900000      89.9856    299.83043   -1896995.2   -1896995.2     -1880020    91.705332    6418146.5    102.25354    102.30018      613.557    2572.0444 
11910000      90.9856    299.91594   -1896956.7   -1896956.7   -1879976.6    161.86755    6418771.3    102.25844    102.30523      613.557    2315.2217 
11920000      91.9856    299.97185   -1897003.1   -1897003.1   -1880019.8    233.18962    6418393.4    102.25236    102.30529      613.557     2058.507 
11930000      92.9856    300.33791   -1896991.2   -1896991.2   -1879987.3    39.985967    6419282.2    102.25499    102.31682      613.557     1801.672 
11940000      93.9856    299.83291   -1896979.2   -1896979.2   -1880003.9   -105.20347    6418941.1    102.26104    102.30534      613.557    1544.8408 
11950000      94.9856     300.1533     -1896968     -1896968   -1879974.5    55.877374    6417918.2    102.24689    102.30318      613.557    1287.9992 
11960000      95.9856    300.34673   -1896976.5   -1896976.5   -1879972.1    29.541826    6417998.9    102.25534    102.29601      613.557    1031.1624 
11970000      96.9856      300.047   -1897007.8   -1897007.8   -1880020.3    55.891987    6418260.8    102.25458    102.30095      613.557    774.29857 
11980000      97.9856    299.93308   -1896969.3   -1896969.3   -1879988.3   -111.31975    6418169.2    102.25204    102.30203      613.557    517.44019 
11990000      98.9856    300.01008   -1896978.9   -1896978.9   -1879993.5   -148.05624    6418363.3    102.25416    102.30301      613.557    260.56733 
12000000      99.9856    299.91492   -1896983.4   -1896983.4   -1880003.4   -236.56031    6418182.2    102.25785    102.29643      613.557    3.6988691 
12000144          100    300.14843   -1896972.5   -1896972.5   -1879979.3   -136.53949    6418358.8    102.24846    102.30864      613.557            0 
Loop time of 25686.6 on 96 procs for 1000000 steps with 438002 atoms

Performance: 0.336 ns/day, 71.352 hours/ns, 38.931 timesteps/s
100.0% CPU use with 96 MPI tasks x 1 OpenMP threads

MPI task timing breakdown:
Section |  min time  |  avg time  |  max time  |%varavg| %total
---------------------------------------------------------------
Pair    | 3.044      | 19209      | 24582      |4705.0 | 74.78
Neigh   | 0.0052443  | 25.357     | 37.467     | 221.1 |  0.10
Comm    | 0.98282    | 2713.9     | 7116.6     |4158.3 | 10.57
Output  | 1.9356     | 1.937      | 1.9404     |   0.1 |  0.01
Modify  | 544.13     | 3657.2     | 25573      |12005.4 | 14.24
Other   |            | 79.15      |            |       |  0.31

Nlocal:        4562.52 ave        6150 max           0 min
Histogram: 12 0 0 0 0 0 12 12 24 36
Nghost:        8091.88 ave       11344 max           0 min
Histogram: 12 0 0 0 0 12 0 16 36 20
Neighs:         0.00000 ave           0 max           0 min
Histogram: 96 0 0 0 0 0 0 0 0 0
FullNghs:      871845.0 ave 1.30063e+06 max           0 min
Histogram: 12 0 0 0 12 0 19 13 12 28

Total # of neighbors = 83697092
Ave neighs/atom = 191.08838
Neighbor list builds = 1062
Dangerous builds = 0
System init for write_restart ...
System init for write_data ...
Total wall time: 7:08:07
