LAMMPS (29 Sep 2021)
  using 1 OpenMP thread(s) per MPI task
Reading restart file ...
  restart file = 29 Sep 2021, LAMMPS = 29 Sep 2021
  restoring atom style atomic from restart
  orthogonal box = (-0.47621552 -0.43002086 0.0000000) to (101.54888 101.50269 564.40900)
  3 by 2 by 16 MPI processor grid
  pair style hybrid/overlay stores no restart info
  425844 atoms
  read_restart CPU = 0.181 seconds
Resetting global fix info from restart file:
  fix style: npt, fix ID: 2

CITE-CITE-CITE-CITE-CITE-CITE-CITE-CITE-CITE-CITE-CITE-CITE-CITE

Your simulation uses code contributions which should be cited:
- @article{cjiang2012
The log file lists these citations in BibTeX format.

CITE-CITE-CITE-CITE-CITE-CITE-CITE-CITE-CITE-CITE-CITE-CITE-CITE

All restart file global fix info was re-assigned
Unused restart file peratom fix info:
  fix style: STORE, fix ID: spatialbins_COMPUTE_STORE
Neighbor list info ...
  update every 1 steps, delay 10 steps, check yes
  max neighbors/atom: 2000, page size: 100000
  master list distance cutoff = 8.28721
  ghost atom cutoff = 8.28721
  binsize = 4.143605, bins = 25 25 137
  3 neighbor lists, perpetual/occasional/extra = 3 0 0
  (1) pair eam/alloy, perpetual, skip from (3)
      attributes: half, newton on
      pair build: skip
      stencil: none
      bin: none
  (2) pair edip/multi, perpetual
      attributes: full, newton on
      pair build: full/bin/atomonly
      stencil: full/bin/3d
      bin: standard
  (3) neighbor class addition, perpetual, half/full from (2)
      attributes: half, newton on
      pair build: halffull/newton
      stencil: none
      bin: none
Setting up Verlet run ...
  Unit style    : metal
  Current step  : 11000088
  Time step     : 0.0001
Per MPI rank memory allocation (min/avg/max) = 5.554 | 11.56 | 17.26 Mbytes
Step Time Temp PotEng E_pair TotEng Press Volume Lx Ly Lz CPULeft 
11000088            0    299.95205   -1775734.4   -1775734.4   -1759223.7    55.095972    5869681.4     102.0251    101.93271      564.409            0 
11010000       0.9912    299.88932   -1775724.9   -1775724.9   -1759217.6   -170.36776    5870252.1    102.02784    101.93988      564.409    24083.363 
11020000       1.9912    300.22153   -1775714.6   -1775714.6     -1759189    2.5018875    5869527.9     102.0202    101.93494      564.409    23818.828 
11030000       2.9912    300.22239   -1775762.2   -1775762.2   -1759236.6   -93.671001    5870087.6    102.02685    101.93801      564.409    23593.322 
11040000       3.9912    300.00972   -1775770.5   -1775770.5   -1759256.6   0.51828877    5869728.4    102.02239    101.93623      564.409    23347.362 
11050000       4.9912    299.97724   -1775708.8   -1775708.8   -1759196.7    113.69746    5869412.8    102.01819    101.93495      564.409    23118.972 
11060000       5.9912    299.74564   -1775727.5   -1775727.5   -1759228.1   -49.887264    5869990.4    102.01879    101.94438      564.409    22878.639 
11070000       6.9912    300.22732   -1775740.1   -1775740.1   -1759214.3    -33.43223    5869925.7    102.02798    101.93408      564.409    22641.984 
11080000       7.9912    299.62358   -1775741.2   -1775741.2   -1759248.6    1.0297788      5869970    102.01812     101.9447      564.409    22390.483 
11090000       8.9912    300.05629   -1775727.5   -1775727.5   -1759211.1   -142.35847    5870699.9    102.03089    101.94461      564.409    22140.272 
11100000       9.9912    299.84414   -1775750.6   -1775750.6   -1759245.8   -66.887643    5870412.1    102.02595    101.94455      564.409    21888.344 
11110000      10.9912    299.85612   -1775723.7   -1775723.7   -1759218.3    65.545124    5869388.4     102.0136    101.93911      564.409    21654.725 
11120000      11.9912    300.15379   -1775764.5   -1775764.5   -1759242.6   -128.94824      5870515    102.02985    101.94244      564.409    21400.593 
11130000      12.9912    299.70149   -1775749.5   -1775749.5   -1759252.5   -27.104084    5869804.5    102.01585    101.94409      564.409    21153.114 
11140000      13.9912    299.86639   -1775730.4   -1775730.4   -1759224.4     111.5847    5869702.3    102.02305    101.93512      564.409    20914.371 
11150000      14.9912    299.95454   -1775761.1   -1775761.1   -1759250.2      64.9375    5869779.1    102.01849    101.94101      564.409    20673.742 
11160000      15.9912    300.09016   -1775740.8   -1775740.8   -1759222.5   -132.07139    5870269.7    102.02007    101.94795      564.409    20430.689 
11170000      16.9912    299.96436   -1775737.6   -1775737.6   -1759226.2    150.52823    5869200.7     102.0157    101.93376      564.409    20190.194 
11180000      17.9912    300.04462   -1775731.9   -1775731.9     -1759216    74.996755    5869441.4    102.01442    101.93922      564.409    19946.838 
11190000      18.9912    299.91455   -1775729.1   -1775729.1   -1759220.5   -161.53036    5870480.1    102.03011    101.94158      564.409    19700.459 
11200000      19.9912    300.21221   -1775705.1   -1775705.1     -1759180   -56.099098    5870180.2    102.02603    101.94045      564.409    19458.317 
11210000      20.9912    299.87645     -1775739     -1775739   -1759232.4   -112.87866    5870015.4    102.02409    101.93952      564.409    19217.665 
11220000      21.9912    300.18052   -1775743.9   -1775743.9   -1759220.6    70.737442    5869557.7    102.01597    101.93968      564.409    18974.713 
11230000      22.9912    299.97461   -1775729.5   -1775729.5   -1759217.5   -70.376249    5870392.1     102.0224    101.94775      564.409    18735.377 
11240000      23.9912    300.11906   -1775732.4   -1775732.4   -1759212.5   -103.54231    5869616.2    102.02467    101.93201      564.409    18493.732 
11250000      24.9912    299.90502   -1775732.1   -1775732.1     -1759224    62.072389    5869744.7    102.01334    101.94556      564.409    18248.953 
11260000      25.9912    300.06094   -1775751.1   -1775751.1   -1759234.4    65.465437    5869161.7    102.01669    101.93209      564.409    18003.988 
11270000      26.9912    300.22995     -1775752     -1775752     -1759226    19.051197    5869959.8    102.02096    101.94168      564.409    17759.808 
11280000      27.9912    299.96499   -1775720.7   -1775720.7   -1759209.3    67.474662    5869903.3    102.01798    101.94368      564.409    17516.074 
11290000      28.9912    299.74426   -1775736.9   -1775736.9   -1759237.6     19.54027    5869826.9    102.02127    101.93906      564.409    17271.975 
11300000      29.9912    299.86105   -1775747.4   -1775747.4   -1759241.7    9.6183461      5869557    102.01975     101.9359      564.409      17028.9 
11310000      30.9912    300.05696   -1775744.7   -1775744.7   -1759228.2   -33.022234      5870193    102.01949     101.9472      564.409    16788.311 
11320000      31.9912    300.00158   -1775708.7   -1775708.7   -1759195.3    41.667351    5870211.4    102.02125    101.94576      564.409    16545.255 
11330000      32.9912    300.03722     -1775720     -1775720   -1759204.6   -17.001476    5870116.4    102.02124    101.94412      564.409    16304.123 
11340000      33.9912    299.74424   -1775743.6   -1775743.6   -1759244.3   -3.3739581    5869972.7    102.02082    101.94205      564.409    16061.477 
11350000      34.9912    300.03884   -1775731.5   -1775731.5     -1759216   -32.292467    5870336.3    102.02441    101.94477      564.409    15818.499 
11360000      35.9912    299.80671   -1775733.3   -1775733.3   -1759230.6   -31.645413    5869973.9    102.01855    101.94434      564.409    15573.015 
11370000      36.9912    299.97313   -1775748.2   -1775748.2   -1759236.3   -154.81341    5870493.3    102.03007    101.94184      564.409    15327.382 
11380000      37.9912    299.90928   -1775717.2   -1775717.2   -1759208.9    38.101086    5870160.4    102.02746    101.93867      564.409    15084.738 
11390000      38.9912    300.06283     -1775729     -1775729   -1759212.2   -7.1787542    5869958.3    102.02379    101.93883      564.409    14841.537 
11400000      39.9912     300.0617   -1775708.4   -1775708.4   -1759191.6    30.297213    5870528.5    102.02225    101.95026      564.409    14599.118 
11410000      40.9912    299.79142     -1775722     -1775722   -1759220.1    42.013731    5869969.1    102.02172    101.94108      564.409    14356.915 
11420000      41.9912    299.90775   -1775703.2   -1775703.2   -1759194.9   -2.9316129    5870326.2    102.03316    101.93585      564.409    14113.963 
11430000      42.9912    299.88995   -1775759.1   -1775759.1   -1759251.8    101.55916    5869693.9    102.02246    101.93556      564.409    13870.696 
11440000      43.9912    299.84705   -1775735.7   -1775735.7   -1759230.8   -16.194097    5870503.8    102.02766    101.94444      564.409    13627.174 
11450000      44.9912    299.92001   -1775724.2   -1775724.2   -1759215.2   -58.048439    5870325.9    102.02752    101.94149      564.409    13383.008 
11460000      45.9912    300.22793   -1775723.1   -1775723.1   -1759197.2   -90.888639    5870754.2    102.02951    101.94693      564.409    13140.287 
11470000      46.9912    300.01749   -1775735.2   -1775735.2   -1759220.9   -6.1624138    5870550.6    102.02804    101.94487      564.409    12897.494 
11480000      47.9912    300.16753     -1775738     -1775738   -1759215.5   -17.243766    5870010.4    102.01731    101.94621      564.409    12654.048 
11490000      48.9912     300.1218   -1775749.2   -1775749.2   -1759229.1    102.35301    5869914.5    102.02585      101.936      564.409      12410.5 
11500000      49.9912    299.83066   -1775740.1   -1775740.1     -1759236    46.539105    5869453.8    102.01769    101.93616      564.409    12167.664 
11510000      50.9912    299.85962   -1775755.3   -1775755.3   -1759249.7   -173.59497    5870642.2    102.02448    101.95001      564.409    11924.009 
11520000      51.9912    300.26734   -1775733.3   -1775733.3   -1759205.2    128.00405    5869577.1    102.01646    101.93953      564.409    11680.249 
11530000      52.9912    299.62385   -1775741.2   -1775741.2   -1759248.5   -2.1713078    5870477.1    102.02541    101.94622      564.409    11437.902 
11540000      53.9912    300.03203   -1775746.4   -1775746.4   -1759231.3   -30.007844      5870081    102.02493    101.93982      564.409    11193.799 
11550000      54.9912    300.07807   -1775722.2   -1775722.2   -1759204.5     91.71765    5869522.2    102.01275    101.94228      564.409     10950.61 
11560000      55.9912    299.92493   -1775724.8   -1775724.8   -1759215.6    78.917077    5869583.3    102.01493    101.94117      564.409    10707.858 
11570000      56.9912    300.01855   -1775749.2   -1775749.2   -1759234.9     58.52482    5870001.8    102.02072    101.94265      564.409     10464.68 
11580000      57.9912    300.03764   -1775717.3   -1775717.3   -1759201.9    15.387952    5869839.2    102.02184    101.93871      564.409    10221.668 
11590000      58.9912    300.01321   -1775713.5   -1775713.5   -1759199.4   -57.421506    5870167.8    102.02265    101.94361      564.409    9978.0924 
11600000      59.9912    300.02089   -1775749.8   -1775749.8   -1759235.3    9.6848718    5870554.5    102.02824    101.94473      564.409    9734.4069 
11610000      60.9912    299.93443   -1775746.4   -1775746.4   -1759236.7    36.660215    5869935.8    102.02162     101.9406      564.409    9491.2374 
11620000      61.9912    299.97951   -1775746.9   -1775746.9   -1759234.6   -9.7275096    5870097.3     102.0095    101.95552      564.409    9247.5286 
11630000      62.9912    299.70032   -1775757.3   -1775757.3   -1759260.4   -159.02368    5870035.3    102.02525    101.93871      564.409     9004.894 
11640000      63.9912    299.86372   -1775746.8   -1775746.8   -1759240.9   -20.986767    5869489.1    102.01728    101.93718      564.409    8761.3852 
11650000      64.9912      300.277   -1775740.7   -1775740.7   -1759212.1    33.523777    5869208.5     102.0127    101.93688      564.409    8518.2502 
11660000      65.9912    300.10057   -1775751.3   -1775751.3   -1759232.4   -109.36137      5870097    102.03167    101.93336      564.409    8274.6286 
11670000      66.9912    300.17915   -1775708.9   -1775708.9   -1759185.7    117.93372    5869335.7    102.02095    101.93085      564.409    8030.6578 
11680000      67.9912    299.89642   -1775707.6   -1775707.6   -1759199.9    41.677521    5870032.3    102.01722    101.94667      564.409    7786.5994 
11690000      68.9912    299.88664     -1775742     -1775742   -1759234.9   -69.573745      5869680    102.02401    101.93378      564.409    7543.0446 
11700000      69.9912     299.8463   -1775735.8   -1775735.8   -1759230.9   -137.90118    5869613.7     102.0187    101.93793      564.409     7300.016 
11710000      70.9912    299.85021   -1775736.2   -1775736.2   -1759231.1   -56.979384    5869683.9    102.02559    101.93227      564.409    7056.7217 
11720000      71.9912    299.88629   -1775726.3   -1775726.3   -1759219.2   -36.870089    5869611.9    102.01835    101.93825      564.409    6813.8043 
11730000      72.9912    299.91214   -1775746.5   -1775746.5     -1759238    58.891598    5869628.9    102.01897    101.93792      564.409    6571.0533 
11740000      73.9912     300.2539   -1775742.9   -1775742.9   -1759215.6   -78.221682    5870323.8    102.02322    101.94574      564.409    6328.1078 
11750000      74.9912    299.98074   -1775743.1   -1775743.1   -1759230.8   -18.954409    5870363.5    102.03545    101.93421      564.409    6085.0595 
11760000      75.9912     300.0927   -1775754.9   -1775754.9   -1759236.4    130.33831    5869305.2    102.01984    101.93143      564.409    5841.9188 
11770000      76.9912    300.02965     -1775716     -1775716     -1759201    62.909207    5869901.3    102.01959    101.94203      564.409    5598.6403 
11780000      77.9912    299.97459     -1775727     -1775727     -1759215   -82.807359    5870357.3    102.03185     101.9377      564.409    5355.1582 
11790000      78.9912    300.16756   -1775746.9   -1775746.9   -1759224.3    70.608359    5870220.3      102.027    101.94017      564.409    5111.9551 
11800000      79.9912     299.8184   -1775743.6   -1775743.6   -1759240.2   -9.9762373    5869954.1    102.01575    101.94678      564.409    4868.8155 
11810000      80.9912     299.7582   -1775757.4   -1775757.4   -1759257.4   -53.584113    5870509.9    102.01835    101.95385      564.409    4625.2271 
11820000      81.9912    299.78502   -1775755.1   -1775755.1   -1759253.6    38.631339    5870286.9     102.0305    101.93783      564.409     4381.866 
11830000      82.9912    299.84815   -1775755.4   -1775755.4   -1759250.4    65.068886    5870396.3    102.02435    101.94587      564.409     4138.508 
11840000      83.9912    300.33387   -1775735.9   -1775735.9   -1759204.2    52.607893    5869694.7     102.0235    101.93454      564.409    3894.9986 
11850000      84.9912    300.30979   -1775731.4   -1775731.4     -1759201    154.64849    5868990.7    102.00971    101.93609      564.409    3651.6835 
11860000      85.9912    300.16389   -1775710.5   -1775710.5   -1759188.1   -14.829353    5869846.4    102.01975    101.94092      564.409    3408.2356 
11870000      86.9912    299.82336   -1775756.7   -1775756.7   -1759253.1   -126.15932    5870138.4    102.02417    101.94157      564.409    3164.8223 
11880000      87.9912    300.16886   -1775730.6   -1775730.6     -1759208   -71.045906    5870098.8    102.02437    101.94069      564.409    2921.4543 
11890000      88.9912    300.07112   -1775742.1   -1775742.1   -1759224.8     17.00685    5869459.6    102.01906     101.9349      564.409    2678.2099 
11900000      89.9912    300.20882   -1775726.1   -1775726.1   -1759201.2   -42.498897    5869757.4    102.02698    101.93215      564.409    2435.0138 
11910000      90.9912     299.7923     -1775762     -1775762     -1759260   -123.64492    5869903.6    102.02122    101.94045      564.409    2191.8101 
11920000      91.9912    299.80368   -1775730.2   -1775730.2   -1759227.7     93.72991    5869335.7    102.01494    101.93686      564.409    1948.6728 
11930000      92.9912    299.91776   -1775727.9   -1775727.9     -1759219    150.89039    5868388.7    102.00845    101.92689      564.409    1705.4187 
11940000      93.9912    300.07258   -1775723.2   -1775723.2   -1759205.9    99.440462    5868726.3    102.01155    101.92966      564.409    1462.1726 
11950000      94.9912    299.89509   -1775727.3   -1775727.3   -1759219.7   -81.142338    5869684.6    102.01812    101.93974      564.409    1218.8587 
11960000      95.9912    300.05441   -1775769.6   -1775769.6   -1759253.2   -63.099618      5869948    102.02306    101.93938      564.409    975.47562 
11970000      96.9912    300.07619     -1775753     -1775753   -1759235.5    -13.60301    5869445.8    102.01618    101.93753      564.409    732.11499 
11980000      97.9912     299.9382   -1775736.5   -1775736.5   -1759226.6    55.214331    5869046.5    102.01011    101.93666      564.409    488.78973 
11990000      98.9912    299.84584   -1775737.7   -1775737.7   -1759232.8    7.4632123    5869261.7    102.01823    101.93228      564.409    245.46912 
12000000      99.9912    299.75928   -1775757.6   -1775757.6   -1759257.5   -49.375564    5869651.1    102.02049    101.93679      564.409    2.1413507 
12000088          100    299.78526   -1775753.1   -1775753.1   -1759251.6    78.623311    5869157.1    102.01853    101.93017      564.409            0 
Loop time of 24333.5 on 96 procs for 1000000 steps with 425844 atoms

Performance: 0.355 ns/day, 67.593 hours/ns, 41.096 timesteps/s
100.0% CPU use with 96 MPI tasks x 1 OpenMP threads

MPI task timing breakdown:
Section |  min time  |  avg time  |  max time  |%varavg| %total
---------------------------------------------------------------
Pair    | 8104.3     | 18214      | 23287      |3091.6 | 74.85
Neigh   | 3.936      | 23.379     | 33.839     | 175.9 |  0.10
Comm    | 423.3      | 4152.1     | 12190      |5659.8 | 17.06
Output  | 1.8738     | 1.8753     | 1.8934     |   0.2 |  0.01
Modify  | 506.99     | 1865.7     | 4229.3     |3012.6 |  7.67
Other   |            | 76.63      |            |       |  0.31

Nlocal:        4435.88 ave        5744 max         975 min
Histogram: 12 0 0 0 0 0 14 19 23 28
Nghost:        8638.86 ave       10958 max        3507 min
Histogram: 12 0 0 0 0 0 16 36 20 12
Neighs:         0.00000 ave           0 max           0 min
Histogram: 96 0 0 0 0 0 0 0 0 0
FullNghs:      854639.0 ave 1.22896e+06 max      136368 min
Histogram: 12 0 0 0 12 12 6 18 12 24

Total # of neighbors = 82045328
Ave neighs/atom = 192.66522
Neighbor list builds = 1011
Dangerous builds = 0
System init for write_restart ...
System init for write_data ...
Total wall time: 6:45:34
