LAMMPS (29 Sep 2021)
  using 1 OpenMP thread(s) per MPI task
Reading restart file ...
  restart file = 29 Sep 2021, LAMMPS = 29 Sep 2021
  restoring atom style atomic from restart
  orthogonal box = (-0.56197707 -0.47760757 0.0000000) to (101.86104 101.77667 528.38451)
  3 by 2 by 16 MPI processor grid
  pair style hybrid/overlay stores no restart info
  434962 atoms
  read_restart CPU = 0.185 seconds
Resetting global fix info from restart file:
  fix style: npt, fix ID: 2

CITE-CITE-CITE-CITE-CITE-CITE-CITE-CITE-CITE-CITE-CITE-CITE-CITE

Your simulation uses code contributions which should be cited:
- @article{cjiang2012
The log file lists these citations in BibTeX format.

CITE-CITE-CITE-CITE-CITE-CITE-CITE-CITE-CITE-CITE-CITE-CITE-CITE

All restart file global fix info was re-assigned
Unused restart file peratom fix info:
  fix style: STORE, fix ID: spatialbins_COMPUTE_STORE
Neighbor list info ...
  update every 1 steps, delay 10 steps, check yes
  max neighbors/atom: 2000, page size: 100000
  master list distance cutoff = 8.28721
  ghost atom cutoff = 8.28721
  binsize = 4.143605, bins = 25 25 128
  3 neighbor lists, perpetual/occasional/extra = 3 0 0
  (1) pair eam/alloy, perpetual, skip from (3)
      attributes: half, newton on
      pair build: skip
      stencil: none
      bin: none
  (2) pair edip/multi, perpetual
      attributes: full, newton on
      pair build: full/bin/atomonly
      stencil: full/bin/3d
      bin: standard
  (3) neighbor class addition, perpetual, half/full from (2)
      attributes: half, newton on
      pair build: halffull/newton
      stencil: none
      bin: none
Setting up Verlet run ...
  Unit style    : metal
  Current step  : 11000304
  Time step     : 0.00025
Per MPI rank memory allocation (min/avg/max) = 7.552 | 11.29 | 13.35 Mbytes
Step Time Temp PotEng E_pair TotEng Press Volume Lx Ly Lz CPULeft 
11000304            0     300.0076   -1918169.7   -1918169.7   -1901302.3    240.86286    5533872.5    102.42302    102.25428    528.38451            0 
11010000        2.424    299.90438   -1918163.3   -1918163.3   -1901301.7   -134.73478    5534277.6    102.42752    102.25727    528.38451    24764.258 
11020000        4.924    299.81171   -1918181.6   -1918181.6   -1901325.3   -9.1752217      5533029    102.40769    102.25399    528.38451    24548.796 
11030000        7.424     299.6136   -1918181.2   -1918181.2   -1901335.9   -26.739027    5533093.2    102.41185    102.25104    528.38451    24307.431 
11040000        9.924    299.57428   -1918180.5   -1918180.5   -1901337.5    112.40303    5532767.3    102.41305    102.24381    528.38451    24047.168 
11050000       12.424    299.82141   -1918170.5   -1918170.5   -1901313.6     75.11068    5533021.4    102.41586     102.2457    528.38451    23780.448 
11060000       14.924    299.41073     -1918158     -1918158   -1901324.2     34.38361      5533584    102.41733    102.25463    528.38451    23522.438 
11070000       17.424    300.28744   -1918217.1   -1918217.1     -1901334   -83.427359    5534511.1     102.4258     102.2633    528.38451    23266.746 
11080000       19.924    299.87112   -1918193.7   -1918193.7     -1901334    227.17429    5533919.3    102.42162    102.25654    528.38451    23012.675 
11090000       22.424    299.82794   -1918175.9   -1918175.9   -1901318.6    115.08448    5534095.4    102.43303    102.24841    528.38451    22756.165 
11100000       24.924    300.19347   -1918175.9   -1918175.9   -1901298.1    26.201288    5533904.6    102.42497    102.25292    528.38451    22503.427 
11110000       27.424    299.90929   -1918188.3   -1918188.3   -1901326.4   -168.55453    5533988.9    102.41924    102.26021    528.38451    22254.459 
11120000       29.924     299.4316   -1918178.8   -1918178.8   -1901343.8    -48.05466      5533337    102.41831    102.24908    528.38451    22004.155 
11130000       32.424    300.54606   -1918206.3   -1918206.3   -1901308.6    151.02913    5532913.6    102.40785     102.2517    528.38451    21754.015 
11140000       34.924    299.64724     -1918184     -1918184   -1901336.9    100.75854    5532597.5    102.40954    102.24418    528.38451    21505.653 
11150000       37.424    299.80662   -1918187.4   -1918187.4   -1901331.4   -52.981791    5533619.9    102.41722     102.2554    528.38451    21258.884 
11160000       39.924    299.94623   -1918182.8   -1918182.8   -1901318.9    13.026693    5533005.4     102.4158    102.24547    528.38451    21010.569 
11170000       42.424    299.94604   -1918187.9   -1918187.9     -1901324    -91.04395    5533975.4    102.42159    102.25761    528.38451     20760.58 
11180000       44.924    299.88201   -1918175.5   -1918175.5   -1901315.2   -37.653404    5534441.8    102.43226    102.25557    528.38451    20507.976 
11190000       47.424    299.88975   -1918198.8   -1918198.8     -1901338   -42.821524    5534305.1     102.4267     102.2586    528.38451     20255.04 
11200000       49.924    299.66584     -1918178     -1918178   -1901329.9   -24.700544    5533689.3    102.42367    102.25025    528.38451    20003.852 
11210000       52.424    299.66309     -1918188     -1918188     -1901340    39.948765      5534330    102.42859    102.25717    528.38451    19753.331 
11220000       54.924    300.07081   -1918177.1   -1918177.1   -1901306.2   -107.97706    5533913.2    102.42541    102.25265    528.38451    19502.941 
11230000       57.424    299.79045   -1918191.7   -1918191.7   -1901336.6    7.6505439    5533202.6    102.42024    102.24468    528.38451    19254.543 
11240000       59.924    299.91651   -1918141.4   -1918141.4   -1901279.2    125.53866    5533395.8    102.42392    102.24457    528.38451     19006.59 
11250000       62.424    300.36984   -1918191.5   -1918191.5   -1901303.8    37.673595    5533716.7     102.4229    102.25152    528.38451    18757.231 
11260000       64.924    299.89328   -1918169.2   -1918169.2   -1901308.2   -282.81066      5534016    102.42717    102.25279    528.38451    18507.883 
11270000       67.424    300.00222   -1918202.9   -1918202.9   -1901335.8    59.783747    5533706.8    102.42877    102.24548    528.38451    18257.535 
11280000       69.924    299.20289     -1918175     -1918175   -1901352.9    56.556407      5533316    102.42133    102.24568    528.38451    18007.415 
11290000       72.424    300.06799   -1918203.9   -1918203.9   -1901333.1    219.14406    5533329.4    102.41737    102.24988    528.38451    17757.828 
11300000       74.924    299.85003   -1918177.2   -1918177.2   -1901318.7   -45.520698    5533770.2    102.41759    102.25781    528.38451    17508.238 
11310000       77.424    299.60504   -1918159.3   -1918159.3   -1901314.5    188.63972    5533459.9    102.42168      102.248    528.38451    17257.477 
11320000       79.924    299.66651   -1918187.3   -1918187.3   -1901339.1   -113.78491    5534158.1    102.43364    102.24895    528.38451    17007.591 
11330000       82.424    299.93961   -1918202.6   -1918202.6     -1901339    5.5331301    5533773.3    102.42593    102.24954    528.38451    16756.715 
11340000       84.924    300.07864   -1918182.3   -1918182.3   -1901310.9   -2.9283918    5533021.2    102.41441    102.24714    528.38451    16506.195 
11350000       87.424    300.27481   -1918166.8   -1918166.8   -1901284.4   -53.428461    5532959.3    102.41685    102.24356    528.38451    16255.816 
11360000       89.924    299.90049   -1918161.5   -1918161.5   -1901300.2   -62.417481    5534052.3    102.42598    102.25465    528.38451    16006.587 
11370000       92.424    300.58061   -1918197.7   -1918197.7   -1901298.1     63.18167    5533123.2    102.42138    102.24207    528.38451    15757.034 
11380000       94.924    299.94375   -1918184.1   -1918184.1   -1901320.3   -16.639683    5533362.7    102.41801    102.24987    528.38451     15507.85 
11390000       97.424    299.79229   -1918183.1   -1918183.1   -1901327.8    87.374038    5533695.4    102.41389    102.26013    528.38451    15257.078 
11400000       99.924    300.31728   -1918181.1   -1918181.1   -1901296.3    60.068728    5534357.6    102.42721    102.25906    528.38451    15006.688 
11410000      102.424    299.73914   -1918188.2   -1918188.2   -1901335.9    105.05862    5534118.7    102.42698    102.25488    528.38451    14756.689 
11420000      104.924    300.49083   -1918187.3   -1918187.3   -1901292.8    137.73509    5534093.5    102.42254    102.25884    528.38451    14506.824 
11430000      107.424    299.64354   -1918174.6   -1918174.6   -1901327.7   -153.41535    5534097.8    102.42461    102.25685    528.38451    14256.373 
11440000      109.924    299.81069   -1918183.7   -1918183.7   -1901327.5   -26.443735    5534177.3    102.42653     102.2564    528.38451    14006.245 
11450000      112.424    300.02585   -1918168.5   -1918168.5   -1901300.1   -191.45591    5534083.6    102.42273    102.25847    528.38451    13756.469 
11460000      114.924     299.9051   -1918184.7   -1918184.7   -1901323.1    152.68497    5533375.5    102.41525    102.25286    528.38451    13506.842 
11470000      117.424     300.1487   -1918185.6   -1918185.6   -1901310.3    36.589706    5532636.3    102.41068    102.24375    528.38451    13256.809 
11480000      119.924    299.92219   -1918168.7   -1918168.7   -1901306.1    66.957343    5533389.5      102.418    102.25037    528.38451    13006.287 
11490000      122.424    300.07452   -1918180.3   -1918180.3   -1901309.2    65.983424    5532977.5    102.41529    102.24546    528.38451    12756.746 
11500000      124.924    299.92253   -1918193.5   -1918193.5   -1901330.9    188.19861    5532507.1    102.40642    102.24563    528.38451    12507.035 
11510000      127.424    299.87914   -1918178.1   -1918178.1     -1901318     37.59305    5534193.1    102.42689    102.25634    528.38451    12257.295 
11520000      129.924    299.81189   -1918183.5   -1918183.5   -1901327.2    304.30283    5533410.5    102.41579    102.25297    528.38451    12006.934 
11530000      132.424    299.47453   -1918197.6   -1918197.6   -1901360.2   -21.398689    5533954.7    102.42576    102.25306    528.38451    11756.555 
11540000      134.924    300.02333   -1918196.6   -1918196.6   -1901328.4    11.383672    5533779.7    102.42159    102.25399    528.38451    11506.523 
11550000      137.424     299.7638   -1918170.8   -1918170.8   -1901317.2   -59.982903    5534061.9    102.42565    102.25516    528.38451    11256.488 
11560000      139.924    299.57627   -1918176.4   -1918176.4   -1901333.3   -234.15622    5533478.1    102.41878    102.25123    528.38451     11006.61 
11570000      142.424    300.24916     -1918190     -1918190   -1901309.1   -210.78024    5533992.4    102.41316    102.26634    528.38451    10756.602 
11580000      144.924    299.09759   -1918152.8   -1918152.8   -1901336.6   -200.01961    5533395.7      102.404    102.26446    528.38451    10506.961 
11590000      147.424    299.71835   -1918163.8   -1918163.8   -1901312.7    81.039827    5533503.1    102.41849    102.25198    528.38451    10257.668 
11600000      149.924    300.19871   -1918170.3   -1918170.3   -1901292.2    69.204073    5533292.2    102.42017     102.2464    528.38451    10008.076 
11610000      152.424    299.77687   -1918178.6   -1918178.6   -1901324.2    150.00681    5533644.1    102.41642    102.25665    528.38451     9758.124 
11620000      154.924     300.0944     -1918198     -1918198   -1901325.7   -12.493087    5533992.9     102.4208    102.25872    528.38451    9508.2316 
11630000      157.424    300.31585   -1918213.2   -1918213.2   -1901328.5    163.61721    5533717.8    102.42085    102.25359    528.38451    9257.8852 
11640000      159.924    300.49804   -1918183.6   -1918183.6   -1901288.6    102.20278    5533819.9     102.4244    102.25193    528.38451    9007.6017 
11650000      162.424    300.07151   -1918201.6   -1918201.6   -1901330.6    173.43992    5533315.9    102.41235    102.25465    528.38451    8757.3919 
11660000      164.924    299.89915   -1918193.6   -1918193.6   -1901332.3     21.51872    5533557.3    102.41458    102.25688    528.38451    8507.2742 
11670000      167.424    300.04055   -1918186.8   -1918186.8   -1901317.6   -31.202294    5533422.8    102.41775    102.25124    528.38451    8257.4392 
11680000      169.924    300.09186   -1918196.6   -1918196.6   -1901324.5   -273.01377    5533209.4    102.41017    102.25485    528.38451     8007.551 
11690000      172.424    300.22393   -1918179.7   -1918179.7   -1901300.2   -209.46765    5533381.9    102.41632     102.2519    528.38451    7757.5701 
11700000      174.924    300.28138   -1918197.3   -1918197.3   -1901314.5    90.953706    5532146.3    102.40916    102.23622    528.38451    7507.5993 
11710000      177.424    300.09249   -1918187.8   -1918187.8   -1901315.7    -127.1533    5533809.7    102.42295    102.25319    528.38451    7257.5524 
11720000      179.924    299.89591   -1918170.5   -1918170.5   -1901309.4    67.368992      5533889    102.42319    102.25441    528.38451    7007.7024 
11730000      182.424    299.75156   -1918190.6   -1918190.6   -1901337.6    8.4953131    5533890.2    102.42599    102.25164    528.38451    6757.6323 
11740000      184.924     299.4384   -1918189.5   -1918189.5   -1901354.1    -116.4898    5534771.9    102.42632     102.2676    528.38451    6507.4727 
11750000      187.424    300.16209   -1918165.6   -1918165.6   -1901289.6    181.94792    5534097.7    102.42079    102.26067    528.38451    6257.2591 
11760000      189.924    299.72346   -1918195.3   -1918195.3   -1901343.9   -67.257162    5534361.8    102.42837    102.25798    528.38451    6007.1472 
11770000      192.424    299.70683   -1918176.2   -1918176.2   -1901325.7   -185.97073    5534301.5    102.41957    102.26565    528.38451    5757.1143 
11780000      194.924    300.28336   -1918202.3   -1918202.3   -1901319.4   -93.087656    5534117.5    102.42371    102.25812    528.38451    5507.1973 
11790000      197.424    300.22307   -1918214.5   -1918214.5     -1901335   -100.89451    5533158.4    102.41151    102.25258    528.38451    5257.2896 
11800000      199.924    299.53203   -1918164.2   -1918164.2   -1901323.6   -171.70071    5533013.9    102.41991    102.24152    528.38451    5007.4292 
11810000      202.424    300.45384   -1918208.5   -1918208.5   -1901316.1   -167.28257    5533410.1    102.41884    102.24991    528.38451    4757.5124 
11820000      204.924    300.24068   -1918194.5   -1918194.5     -1901314    166.10015    5532516.3    102.41151    102.24071    528.38451     4507.517 
11830000      207.424    300.45954   -1918192.7   -1918192.7     -1901300    5.4357847    5533327.2    102.42093    102.24629    528.38451    4257.4698 
11840000      209.924    299.87498   -1918164.2   -1918164.2   -1901304.3   -141.23679    5534957.8    102.42726     102.2701    528.38451    4007.4462 
11850000      212.424     299.6771     -1918201     -1918201   -1901352.2    66.002516    5534685.4    102.42999    102.26234    528.38451     3757.417 
11860000      214.924    299.63411   -1918210.7   -1918210.7   -1901364.4   -61.917173      5534308    102.42141    102.26394    528.38451    3507.3132 
11870000      217.424     300.3733   -1918198.6   -1918198.6   -1901310.7   -212.79784    5534563.1    102.42657     102.2635    528.38451    3257.2216 
11880000      219.924    299.95959   -1918189.4   -1918189.4   -1901324.7   -62.236392    5534435.4    102.42636    102.26134    528.38451    3007.1467 
11890000      222.424    299.80463   -1918204.4   -1918204.4   -1901348.5   -27.800329    5533224.7     102.4209    102.24442    528.38451    2757.1297 
11900000      224.924    300.09684   -1918178.3   -1918178.3   -1901305.9     12.44891    5533092.4     102.4139    102.24897    528.38451    2507.1891 
11910000      227.424    300.56711   -1918203.7   -1918203.7   -1901304.9   -85.552356    5532921.7    102.41611    102.24361    528.38451    2257.2962 
11920000      229.924    299.87964   -1918185.1   -1918185.1   -1901324.9    90.825533    5532475.4    102.41121    102.24025    528.38451    2007.4011 
11930000      232.424    300.42857   -1918189.6   -1918189.6   -1901298.6    13.576828      5532822    102.41107     102.2468    528.38451    1757.4753 
11940000      234.924    299.83025   -1918201.8   -1918201.8   -1901344.4   -6.9840604    5533397.6    102.42284    102.24569    528.38451    1507.5267 
11950000      237.424     300.0787   -1918177.8   -1918177.8   -1901306.4    110.88513    5533337.3    102.42097    102.24644    528.38451    1257.5521 
11960000      239.924    299.75735   -1918178.3   -1918178.3     -1901325    216.83727    5533790.3    102.42463    102.25116    528.38451    1007.5522 
11970000      242.424    299.47296   -1918187.2   -1918187.2   -1901349.9    56.509545    5534596.6    102.43209     102.2586    528.38451    757.55052 
11980000      244.924    300.26495   -1918200.2   -1918200.2   -1901318.3   -92.587465    5534024.9    102.43096    102.24917    528.38451    507.56027 
11990000      247.424    300.13975   -1918186.1   -1918186.1   -1901311.3    12.864948    5533857.1     102.4221    102.25492    528.38451    257.57464 
12000000      249.924    299.83476   -1918208.6   -1918208.6   -1901350.9    93.590019    5533431.7    102.41517    102.25397    528.38451    7.5992586 
12000304          250    300.32535   -1918186.5   -1918186.5   -1901301.3   -49.434921    5533471.8    102.41446    102.25543    528.38451            0 
Loop time of 24997.5 on 96 procs for 1000000 steps with 434962 atoms

Performance: 0.864 ns/day, 27.775 hours/ns, 40.004 timesteps/s
100.0% CPU use with 96 MPI tasks x 1 OpenMP threads

MPI task timing breakdown:
Section |  min time  |  avg time  |  max time  |%varavg| %total
---------------------------------------------------------------
Pair    | 14758      | 19466      | 23988      |1717.7 | 77.87
Neigh   | 37.819     | 59.329     | 77.183     | 173.2 |  0.24
Comm    | 410.51     | 3178.1     | 7748.2     |3707.4 | 12.71
Output  | 1.8862     | 1.8871     | 1.9085     |   0.2 |  0.01
Modify  | 482.19     | 2224.4     | 3486.3     |1820.5 |  8.90
Other   |            | 68.19      |            |       |  0.27

Nlocal:        4530.85 ave        5453 max        3304 min
Histogram: 12 8 4 2 9 21 4 0 8 28
Nghost:        8707.88 ave       10651 max        5361 min
Histogram: 12 0 0 0 0 11 38 14 13 8
Neighs:         0.00000 ave           0 max           0 min
Histogram: 96 0 0 0 0 0 0 0 0 0
FullNghs:      864608.0 ave 1.15943e+06 max      430757 min
Histogram: 12 4 8 0 8 17 11 0 1 35

Total # of neighbors = 83002384
Ave neighs/atom = 190.82675
Neighbor list builds = 2456
Dangerous builds = 0
System init for write_restart ...
System init for write_data ...
Total wall time: 6:56:38
