LAMMPS (29 Sep 2021)
  using 1 OpenMP thread(s) per MPI task
Reading data file ...
  orthogonal box = (-0.072926862 -0.058159411 0.0000000) to (101.71599 101.70122 620.30400)
  2 by 1 by 12 MPI processor grid
  reading atoms ...
  442392 atoms
  reading velocities ...
  442392 velocities
  read_data CPU = 4.605 seconds
221194 atoms in group g_left
221198 atoms in group g_right

CITE-CITE-CITE-CITE-CITE-CITE-CITE-CITE-CITE-CITE-CITE-CITE-CITE

Your simulation uses code contributions which should be cited:
- GPU package (short-range, long-range and three-body potentials):
The log file lists these citations in BibTeX format.

CITE-CITE-CITE-CITE-CITE-CITE-CITE-CITE-CITE-CITE-CITE-CITE-CITE


--------------------------------------------------------------------------
- Using acceleration for eam/alloy:
-  with 12 proc(s) per device.
-  Horizontal vector operations: ENABLED
-  Shared memory system: No
--------------------------------------------------------------------------
Device 0: Tesla V100-SXM2-32GB, 80 CUs, 28/32 GB, 1.5 GHZ (Mixed Precision)
Device 1: Tesla V100-SXM2-32GB, 80 CUs, 1.5 GHZ (Mixed Precision)
--------------------------------------------------------------------------

Initializing Device and compiling on process 0...Done.
Initializing Devices 0-1 on core 0...Done.
Initializing Devices 0-1 on core 1...Done.
Initializing Devices 0-1 on core 2...Done.
Initializing Devices 0-1 on core 3...Done.
Initializing Devices 0-1 on core 4...Done.
Initializing Devices 0-1 on core 5...Done.
Initializing Devices 0-1 on core 6...Done.
Initializing Devices 0-1 on core 7...Done.
Initializing Devices 0-1 on core 8...Done.
Initializing Devices 0-1 on core 9...Done.
Initializing Devices 0-1 on core 10...Done.
Initializing Devices 0-1 on core 11...Done.

Setting up Verlet run ...
  Unit style    : metal
  Current step  : 0
  Time step     : 0.00025
Per MPI rank memory allocation (min/avg/max) = 8.415 | 11.06 | 11.70 Mbytes
Step Time Temp Press PotEng KinEng TotEng Volume 
       0            0    15781.017     147190.3   -1712948.3    902414.15    -810534.2    6425094.9 
     100        0.025    15777.943    147466.14   -1712944.1    902238.42    -810705.7    6409557.9 
     200         0.05    15777.556    147826.03   -1712933.2    902216.28   -810716.94    6394020.9 
     300        0.075    15778.301    148203.81     -1712921    902258.84    -810662.2      6378484 
     400          0.1    15778.442    148562.33   -1712941.7    902266.94   -810674.72      6362947 
     500        0.125    15777.905     148923.3   -1712959.8     902236.2   -810723.61      6347410 
     600         0.15     15777.82    149293.45   -1712945.6    902231.37   -810714.26    6331873.1 
     700        0.175    15778.687    149655.08   -1712945.5    902280.95   -810664.51    6316336.1 
     800          0.2    15778.655    150015.24   -1712936.4    902279.12   -810657.32    6300799.1 
     900        0.225    15777.999    150383.19   -1712924.7    902241.59   -810683.12    6285262.2 
    1000         0.25     15778.61    150740.38   -1712958.4    902276.56   -810681.81    6269725.2 
    1100        0.275    15778.179    151119.57   -1712932.2    902251.92   -810680.31    6254188.2 
    1200          0.3    15776.989    151488.21   -1712912.4    902183.83   -810728.55    6238651.3 
    1300        0.325    15777.296    151844.27     -1712969    902201.38   -810767.65    6223114.3 
    1400         0.35    15777.033    152254.61   -1712920.4    902186.34   -810734.02    6207577.3 
    1500        0.375    15778.191    152641.82   -1712936.2    902252.57   -810683.68    6192040.4 
    1600          0.4    15782.227    152876.32   -1713181.1    902483.37   -810697.73    6176503.4 
    1700        0.425    15797.515    153699.44   -1714109.8    903357.58   -810752.19    6160966.4 
    1800         0.45    15677.562    153881.22   -1707259.7    896498.27    -810761.4    6145429.5 
    1900        0.475    15647.787    162534.01   -1705524.3    894795.59   -810728.73    6129892.5 
    2000          0.5    15390.824    173293.44   -1690831.7    880101.58   -810730.13    6114355.5 
    2100        0.525    15220.168    181420.28   -1681124.2    870342.84   -810781.37    6098818.6 
    2200         0.55    15075.598    189112.08   -1672883.1    862075.85   -810807.26    6083281.6 
    2300        0.575    14919.385    196884.74   -1663937.6    853143.02   -810794.58    6067744.7 
    2400          0.6    14780.227    204768.53   -1655990.5     845185.5   -810805.03    6052207.7 
    2500        0.625    14610.556     212859.5   -1646329.1    835483.09   -810845.98    6036670.7 
    2600         0.65    14478.334    220776.62   -1638788.2     827922.2      -810866    6021133.8 
    2700        0.675    14303.669    230025.01   -1628782.3    817934.22   -810848.12    6005596.8 
    2800          0.7    14273.709    234524.02   -1627064.9    816220.99   -810843.91    5990059.8 
    2900        0.725    14399.636    231646.86   -1634286.4    823421.94   -810864.45    5974522.9 
    3000         0.75    14317.092    227561.85   -1629562.5     818701.8   -810860.73    5958985.9 
    3100        0.775    14262.936    224838.94   -1626420.7    815604.97   -810815.76    5943448.9 
    3200          0.8    14324.677    223539.69   -1629912.2     819135.5   -810776.74      5927912 
    3300        0.825    14266.368    224425.74   -1626561.4    815801.24   -810760.13      5912375 
    3400         0.85    14251.279    223999.51   -1625675.1    814938.38   -810736.73      5896838 
    3500        0.875     14209.52    223357.33   -1623258.2    812550.43   -810707.77    5881301.1 
    3600          0.9    14118.525    223978.48   -1618060.5       807347   -810713.54    5865764.1 
    3700        0.925    14050.059    225984.98   -1614195.7    803431.89   -810763.85    5850227.1 
    3800         0.95    13968.589    229724.85   -1609580.5    798773.18   -810807.28    5834690.2 
    3900        0.975    13887.294    232800.03   -1604926.9    794124.41   -810802.48    5819153.2 
    4000            1    13821.901    235395.52   -1601159.9    790385.02   -810774.91    5803616.2 
    4100        1.025    13742.619    237622.73   -1596625.7    785851.37    -810774.3    5788079.3 
    4200         1.05    13678.654    239886.49   -1592986.9    782193.64   -810793.22    5772542.3 
    4300        1.075    13620.484     242674.6   -1589670.1     778867.3   -810802.82    5757005.3 
    4400          1.1    13545.909    244949.13   -1585408.1    774602.81   -810805.28    5741468.4 
    4500        1.125    13483.951    247424.33     -1581875    771059.82   -810815.21    5725931.4 
    4600         1.15    13425.823    249840.87   -1578556.4    767735.89    -810820.5    5710394.4 
    4700        1.175    13377.821    252514.14   -1575793.6    764990.98   -810802.59    5694857.5 
    4800          1.2    13321.797    255716.43   -1572558.6    761787.32   -810771.24    5679320.5 
    4900        1.225     13263.86    258802.54   -1569233.4    758474.27   -810759.13    5663783.5 
    5000         1.25    13218.032    261630.48   -1566606.7    755853.66   -810753.04    5648246.6 
    5100        1.275     13178.43    264337.14   -1564326.4    753589.09   -810737.29    5632709.6 
    5200          1.3    13117.177    268055.94   -1560802.9    750086.43   -810716.51    5617172.6 
    5300        1.325    12984.738    277917.73   -1553211.8    742513.09   -810698.69    5601635.7 
    5400         1.35      12853.4    282673.81   -1545686.8    735002.73   -810684.03    5586098.7 
    5500        1.375    12693.843    289611.59   -1536552.3     725878.7   -810673.56    5570561.7 
    5600          1.4    12574.133    300080.57   -1529704.1    719033.27   -810670.83    5555024.8 
    5700        1.425    12447.154     306954.7   -1522447.3    711772.13   -810675.21    5539487.8 
    5800         1.45    12305.365    313576.44   -1514330.3    703664.13   -810666.16    5523950.8 
    5900        1.475    12197.276    322401.88   -1508118.8    697483.25   -810635.56    5508413.9 
    6000          1.5    12095.582    329554.99   -1502300.3    691668.03   -810632.25    5492876.9 
    6100        1.525    11989.559    335959.04   -1496289.3    685605.24   -810684.01    5477339.9 
    6200         1.55    11898.303    342982.81     -1491131     680386.9   -810744.15      5461803 
    6300        1.575    11815.189    349540.41   -1486390.4    675634.13   -810756.23      5446266 
    6400          1.6    11730.688    355573.42   -1481536.7     670802.1    -810734.6      5430729 
    6500        1.625    11647.065    361715.93   -1476768.8    666020.21   -810748.63    5415192.1 
    6600         1.65    11562.374    367745.33   -1471987.9    661177.28   -810810.66    5399655.1 
    6700        1.675    11478.861     373783.4     -1467255    656401.74   -810853.27    5384118.1 
    6800          1.7    11396.084    379999.52     -1462511    651668.24   -810842.72    5368581.2 
    6900        1.725    11305.448    386509.22   -1457298.2    646485.35   -810812.85    5353044.2 
    7000         1.75    11207.117    393436.83   -1451668.5    640862.47   -810806.03    5337507.2 
    7100        1.775    11100.534     401049.6   -1445582.9    634767.66   -810815.21    5321970.3 
    7200          1.8    10991.488     409269.3   -1439358.1    628532.04   -810826.01    5306433.3 
    7300        1.825     10858.53    417658.03     -1431768    620929.01   -810838.97    5290896.3 
    7400         1.85    10796.269    422911.12   -1428222.5    617368.72   -810853.78    5275359.4 
    7500        1.875    10777.252    423863.72   -1427145.9    616281.26   -810864.62    5259822.4 
    7600          1.9    10649.362    425523.11   -1419835.8    608968.07    -810867.7    5244285.4 
    7700        1.925    10560.066    428200.59   -1414725.6    603861.82   -810863.73    5228748.5 
    7800         1.95    10516.678     431464.1   -1412232.7    601380.74   -810852.01    5213211.5 
    7900        1.975    10413.452    436989.32   -1406307.1    595477.88    -810829.2    5197674.5 
    8000            2    10297.462    442687.45   -1399666.4    588845.19   -810821.18    5182137.6 
    8100        2.025     10247.48    445915.01   -1396828.3    585987.04   -810841.21    5166600.6 
    8200         2.05    10093.402    450718.65   -1388050.6    577176.31   -810874.27    5151063.6 
    8300        2.075    9974.3694    456425.08   -1381250.2     570369.6   -810880.64    5135526.7 
    8400          2.1    9922.4051    462031.49   -1378253.9     567398.1    -810855.8    5119989.7 
    8500        2.125    9787.6805     469153.8   -1370535.2    559694.07   -810841.15    5104452.7 
    8600         2.15    9693.0925    475131.42   -1365134.1     554285.2   -810848.92    5088915.8 
    8700        2.175    9615.5862    479089.69   -1360712.7    549853.11   -810859.59    5073378.8 
    8800          2.2    9510.0595    483427.28   -1354682.3    543818.72   -810863.62    5057841.8 
    8900        2.225    9441.7964     487381.3   -1350775.6     539915.2   -810860.42    5042304.9 
    9000         2.25    9373.9765    491777.58     -1346898    536037.02   -810860.98    5026767.9 
    9100        2.275     9305.639    496000.88     -1343001    532129.24   -810871.71    5011230.9 
    9200          2.3     9250.366    499657.83   -1339834.9    528968.54   -810866.37      4995694 
    9300        2.325    9192.0625     503316.5   -1336491.2    525634.53    -810856.7      4980157 
    9400         2.35    9133.8365    507252.48   -1333161.8    522304.97   -810856.84      4964620 
    9500        2.375    9071.6591    512473.62   -1329592.6    518749.44   -810843.13    4949083.1 
    9600          2.4    9026.8502    517895.91   -1326974.8    516187.11   -810787.74    4933546.1 
    9700        2.425     8989.065    523513.08   -1324745.8    514026.42   -810719.36    4918009.1 
    9800         2.45    8958.8887    529632.76   -1323019.4    512300.83   -810718.54    4902472.2 
    9900        2.475    8940.4978    535715.05   -1322020.7    511249.18   -810771.53    4886935.2 
   10000          2.5    8897.8863    543773.68   -1319617.2     508812.5   -810804.72    4871398.2 
   10100        2.525    8834.3287    553992.37   -1315963.7    505178.06   -810785.63    4855861.3 
   10200         2.55       8810.9    563054.95   -1314598.7    503838.32    -810760.4    4840324.3 
   10300        2.575    8708.3405    571562.56   -1308747.5    497973.61   -810773.86    4824787.4 
   10400          2.6     8655.941    580319.42   -1305779.7    494977.22   -810802.44    4809250.4 
   10500        2.625    8571.4527    590194.17   -1300961.1    490145.88   -810815.27    4793713.4 
   10600         2.65    8508.8102    599520.18   -1297380.3    486563.76   -810816.56    4778176.5 
   10700        2.675    8413.9066    608775.42   -1291978.2    481136.84   -810841.34    4762639.5 
   10800          2.7    8347.6719    617777.88   -1288237.1     477349.3   -810887.83    4747102.5 
   10900        2.725    8271.9424    626525.18   -1283932.4    473018.82    -810913.6    4731565.6 
   11000         2.75    8207.4775    634289.62   -1280248.8    469332.49    -810916.3    4716028.6 
   11100        2.775    8142.6755    642002.13   -1276549.7    465626.88   -810922.82    4700491.6 
   11200          2.8    8089.2737    650182.46   -1273504.5    462573.19   -810931.32    4684954.7 
   11300        2.825    8025.0485    658012.74     -1269822    458900.56   -810921.39    4669417.7 
   11400         2.85    7935.5339    664964.75   -1264687.3     453781.8   -810905.55    4653880.7 
   11500        2.875    7845.9237    671642.35   -1259563.1    448657.58   -810905.53    4638343.8 
   11600          2.9     7737.313    677426.47   -1253370.3    442446.83   -810923.44    4622806.8 
   11700        2.925    7608.9949     682887.9     -1246040    435109.15   -810930.88    4607269.8 
   11800         2.95    7479.1745    688335.74   -1238594.1    427685.56   -810908.56    4591732.9 
   11900        2.975     7352.544    694294.12   -1231335.3    420444.38   -810890.92    4576195.9 
   12000            3    7228.3028    700545.68   -1224243.5    413339.83   -810903.66    4560658.9 
   12100        3.025    7092.6385    706992.87     -1216515    405582.07    -810932.9      4545122 
   12200         3.05    6958.0107    713328.02   -1208829.8    397883.57   -810946.24      4529585 
   12300        3.075    6837.7959    720564.07   -1201957.1    391009.27   -810947.87      4514048 
   12400          3.1    6711.8615    728397.51   -1194759.5     383807.9   -810951.59    4498511.1 
   12500        3.125    6590.7681    736678.77   -1187841.8    376883.35   -810958.46    4482974.1 
   12600         3.15    6462.7771    745978.56   -1180536.7    369564.38   -810972.35    4467437.1 
   12700        3.175     6343.515     756047.5   -1173726.6    362744.55   -810982.07    4451900.2 
   12800          3.2    6226.8959    765212.72   -1167065.5    356075.85   -810989.68    4436363.2 
   12900        3.225    6128.8814    773955.57   -1161472.3    350471.04   -811001.25    4420826.2 
   13000         3.25    6005.9874    782259.12   -1154450.4    343443.53   -811006.88    4405289.3 
   13100        3.275     5884.242    792451.92   -1147471.8     336481.7   -810990.11    4389752.3 
   13200          3.3    5759.3914    804009.33   -1140311.8     329342.3   -810969.51    4374215.3 
   13300        3.325    5624.0975     815925.3   -1132579.6    321605.72    -810973.9    4358678.4 
   13400         3.35    5488.3751    827188.56   -1124836.5    313844.64   -810991.85    4343141.4 
   13500        3.375    5364.0014    838129.87     -1117734    306732.51   -811001.51    4327604.4 
   13600          3.4    5258.3134    848466.31   -1111671.4    300688.89   -810982.51    4312067.5 
   13700        3.425    5161.4443    857760.37   -1106097.5    295149.58    -810947.9    4296530.5 
   13800         3.45    5073.7665     866318.8   -1101058.8    290135.85   -810922.97    4280993.5 
   13900        3.475    5004.6485    874371.44   -1097091.5    286183.44   -810908.07    4265456.6 
   14000          3.5    4937.2974    881728.53   -1093218.6    282332.07    -810886.5    4249919.6 
   14100        3.525    4879.7124    888630.26   -1089894.9    279039.16   -810855.72    4234382.6 
   14200         3.55    4811.7204    895455.63   -1085992.1    275151.13   -810840.96    4218845.7 
   14300        3.575    4751.7788    902291.75   -1082567.8    271723.46   -810844.31    4203308.7 
   14400          3.6    4687.5678    909315.64     -1078892    268051.65   -810840.31    4187771.7 
   14500        3.625    4629.0842    916668.44   -1075547.1    264707.35   -810839.73    4172234.8 
   14600         3.65    4579.2957    924404.99   -1072718.6    261860.27   -810858.33    4156697.8 
   14700        3.675     4542.105    932418.31   -1070609.5    259733.58   -810875.93    4141160.8 
   14800          3.7    4509.2729     940616.7   -1068732.5    257856.12   -810876.43    4125623.9 
   14900        3.725    4485.9587    949028.27   -1067398.4    256522.93    -810875.5    4110086.9 
   15000         3.75    4460.8382    957299.64   -1065971.6    255086.45    -810885.1    4094549.9 
   15100        3.775    4440.7379    966123.82   -1064810.9    253937.05   -810873.89      4079013 
   15200          3.8    4425.7119    974770.76   -1063914.9    253077.81   -810837.12      4063476 
   15300        3.825     4408.884    983220.48     -1062922    252115.53   -810806.49      4047939 
   15400         3.85    4388.5757    991485.36   -1061759.8    250954.23   -810805.62    4032402.1 
   15500        3.875    4365.2719    999625.33     -1060432    249621.63   -810810.39    4016865.1 
   15600          3.9    4343.8378    1007821.7   -1059197.4    248395.96   -810801.46    4001328.1 
   15700        3.925    4319.0948    1016404.6   -1057763.7    246981.06   -810782.61    3985791.2 
   15800         3.95     4301.625    1024858.6   -1056757.8    245982.08   -810775.67    3970254.2 
   15900        3.975    4277.0213    1032881.9   -1055364.5    244575.15   -810789.33    3954717.2 
   16000            4    4243.7036    1040880.4   -1053448.8    242669.93   -810778.86    3939180.3 
   16100        4.025    4187.8219    1050123.9   -1050213.5    239474.42   -810739.04    3923643.3 
   16200         4.05    4095.2953    1062209.5   -1044896.2    234183.42   -810712.82    3908106.3 
   16300        4.075    3976.4151    1073109.8   -1038116.2    227385.43   -810730.75    3892569.4 
   16400          4.1    3872.8745    1084810.9   -1032231.4    221464.61   -810766.79    3877032.4 
   16500        4.125    3764.9121    1097919.2   -1026070.3    215290.95   -810779.34    3861495.4 
   16600         4.15    3662.8431    1110223.5   -1020214.6    209454.28   -810760.33    3845958.5 
   16700        4.175    3550.2432      1122755   -1013772.2    203015.42   -810756.79    3830421.5 
   16800          4.2    3439.5809      1135931   -1007472.9    196687.36   -810785.58    3814884.5 
   16900        4.225    3310.1585    1149145.1   -1000067.9    189286.53   -810781.38    3799347.6 
   17000         4.25    3187.6694    1162114.6   -992919.11    182282.17   -810636.94    3783810.6 
   17100        4.275    3049.0137    1175140.3   -984731.59    174353.35   -810378.23    3768273.6 
   17200          4.3    2972.4326    1195613.7   -971798.64    169974.17   -801824.46    3752736.7 
   17300        4.325    3209.2961    1222712.6   -943636.14    183518.86   -760117.27    3737199.7 
   17400         4.35    3766.8662    1256063.8   -927795.86    215402.69   -712393.17    3721662.7 
   17500        4.375     3907.361    1285558.2   -902140.67    223436.67      -678704    3706125.8 
   17600          4.4    3969.0981    1314369.4   -881957.74    226967.02   -654990.72    3690588.8 
   17700        4.425    4220.8725      1350251   -855366.43    241364.37   -614002.06    3675051.8 
   17800         4.45    4691.1043    1385228.3   -835601.32    268253.88   -567347.45    3659514.9 
   17900        4.475    4893.8299    1410700.3   -814242.51    279846.44   -534396.07    3643977.9 
   18000          4.5    5144.7002      1434090      -794996    294192.09   -500803.91    3628440.9 
   18100        4.525    5521.5205    1461001.6   -773942.74    315740.01   -458202.73      3612904 
   18200         4.55    5784.6681    1487096.9   -752570.39    330787.71   -421782.68      3597367 
   18300        4.575     5844.862    1513640.5   -729163.27    334229.81   -394933.46    3581830.1 
   18400          4.6    5887.5358    1542113.9    -704303.2    336670.05   -367633.15    3566293.1 
   18500        4.625    5942.9275    1571830.9   -680113.84    339837.54    -340276.3    3550756.1 
   18600         4.65    5904.7198    1601766.1   -655283.92    337652.69   -317631.23    3535219.2 
   18700        4.675    5879.9902    1637305.6   -629997.78    336238.57   -293759.21    3519682.2 
   18800          4.7     5876.471    1683794.6   -600885.89    336037.33   -264848.57    3504145.2 
   18900        4.725     5907.422      1727801   -572726.51    337807.21    -234919.3    3488608.3 
   19000         4.75    5894.0609    1769353.3   -543283.03    337043.18   -206239.85    3473071.3 
   19100        4.775     5954.192    1814105.5   -516325.71    340481.68   -175844.02    3457534.3 
   19200          4.8    6090.6494    1857486.8   -489703.54     348284.8   -141418.74    3441997.4 
   19300        4.825    6246.4429    1899895.6   -463471.48    357193.62   -106277.86    3426460.4 
   19400         4.85    6426.7982    1945012.1   -437795.97    367506.97   -70288.993    3410923.4 
   19500        4.875    6651.8792    1989535.6    -412770.2     380377.9     -32392.3    3395386.5 
   19600          4.9     6903.167    2034128.7   -388772.91    394747.42    5974.5098    3379849.5 
   19700        4.925    7221.9233    2077980.3   -366482.63    412975.03    46492.404    3364312.5 
   19800         4.95    7654.4013      2120861   -346233.77    437705.65    91471.883    3348775.6 
   19900        4.975    8253.1088    2161081.9    -329920.2    471941.85    142021.65    3333238.6 
   20000            5    8946.3658    2196311.1   -315648.92    511584.73    195935.81    3317701.6 
   20100        5.025    9612.5641    2226670.2   -301988.37     549680.3    247691.93    3302164.7 
   20200         5.05    10243.557    2256695.2   -288991.69     585762.7    296771.02    3286627.7 
   20300        5.075    10838.027    2286694.5   -275990.48    619756.57    343766.09    3271090.7 
   20400          5.1     11462.58    2317471.6   -264347.32    655470.75    391123.44    3255553.8 
   20500        5.125    12057.767    2347597.6   -252638.84    689505.61    436866.77    3240016.8 
   20600         5.15    12628.854    2376763.4   -241880.38     722162.4    480282.02    3224479.8 
   20700        5.175    13175.271    2406470.2    -231802.5    753408.45    521605.94    3208942.9 
   20800          5.2    13714.761    2439743.9   -220894.05     784258.4    563364.34    3193405.9 
   20900        5.225    14255.072    2475636.6   -209749.15    815155.27    605406.12    3177868.9 
   21000         5.25    14747.081    2517975.6   -196352.57    843290.09    646937.53      3162332 
   21100        5.275     15154.55      2567578   -178219.18    866590.57     688371.4      3146795 
   21200          5.3    15511.707    2622277.5   -156509.53    887014.06    730504.53      3131258 
   21300        5.325    15782.605    2674925.3   -130635.53    902504.99    771869.46    3115721.1 
   21400         5.35    16039.192    2726016.7   -104768.25    917177.52    812409.27    3100184.1 
   21500        5.375    16219.933    2777206.1   -76289.599    927512.93    851223.33    3084647.1 
   21600          5.4    16345.916    2828827.9   -45398.506    934717.12    889318.61    3069110.2 
   21700        5.425    16398.507    2882608.6   -12223.082    937724.44    925501.36    3053573.2 
   21800         5.45    16357.255    2938857.3    23585.196    935365.47    958950.67    3038036.2 
   21900        5.475     16280.49    2997537.1    59809.172    930975.81    990784.99    3022499.3 
   22000          5.5    16163.554    3057480.8    96238.315    924288.96    1020527.3    3006962.3 
   22100        5.525    16042.067    3118777.4    130627.82    917341.91    1047969.7    2991425.3 
   22200         5.55    15917.991    3179440.1    163620.47    910246.85    1073867.3    2975888.4 
   22300        5.575    15817.707      3239594    193715.39    904512.25    1098227.6    2960351.4 
   22400          5.6    15758.346    3295081.4    220889.74    901117.76    1122007.5    2944814.4 
   22500        5.625    15739.136    3345851.8    245637.19    900019.27    1145656.5    2929277.5 
   22600         5.65    15766.972    3391300.4    267852.77    901611.03    1169463.8    2913740.5 
   22700        5.675    15856.414    3431242.9    286288.54    906725.67    1193014.2    2898203.5 
   22800          5.7    15993.772    3467007.7    302244.23    914580.28    1216824.5    2882666.6 
   22900        5.725    16188.063    3499716.8    314963.45    925690.52      1240654    2867129.6 
   23000         5.75    16400.295    3530243.7    326219.27    937826.68    1264045.9    2851592.6 
   23100        5.775    16634.999    3560399.4     336142.8    951247.87    1287390.7    2836055.7 
   23200          5.8    16890.114    3593111.6    344966.62    965836.22    1310802.8    2820518.7 
   23300        5.825    17131.918    3627976.7    354830.77    979663.44    1334494.2    2804981.7 
   23400         5.85     17339.86      3668802    366244.34    991554.29    1357798.6    2789444.8 
   23500        5.875    17543.067      3715540    378904.38    1003174.4    1382078.8    2773907.8 
   23600          5.9    17727.418    3768025.7    394594.83    1013716.2    1408311.1    2758370.8 
   23700        5.925    17944.298    3825625.9    411629.08    1026118.2    1437747.3    2742833.9 
   23800         5.95    18180.073    3889430.5    433478.98    1039600.7    1473079.6    2727296.9 
   23900        5.975    18544.707    3959950.7    455915.53    1060451.7    1516367.2    2711759.9 
   24000            6    18959.713    4035525.8    480697.41    1084183.2    1564880.6      2696223 
   24100        6.025    19365.903    4114500.6    507383.87    1107410.6    1614794.5      2680686 
   24200         6.05     19469.77    4210053.7    549866.02    1113350.1    1663216.1      2665149 
   24300        6.075    19111.093      4330579    618288.94    1092839.6    1711128.6    2649612.1 
   24400          6.1    18741.514    4455985.6    687739.84    1071705.8    1759445.7    2634075.1 
   24500        6.125     18394.78      4574993     755697.6    1051878.4      1807576    2618538.1 
   24600         6.15    18055.155    4683300.9    821825.42    1032457.4    1854282.8    2603001.2 
   24700        6.175     17734.54    4782260.3     886368.6    1014123.5    1900492.1    2587464.2 
   24800          6.2      17410.2    4885085.6    950839.54    995576.62    1946416.2    2571927.2 
   24900        6.225    17131.416    4996291.3    1011943.2    979634.77      1991578    2556390.3 
   25000         6.25    16860.103    5121830.1    1073403.4    964120.14    2037523.5    2540853.3 
   25100        6.275    16648.347    5258035.4    1131731.3    952011.17    2083742.5    2525316.3 
   25200          6.3     16494.61    5380025.2    1186309.5    943219.91    2129529.4    2509779.4 
   25300        6.325     16416.17    5497655.2    1236170.1    938734.47    2174904.6    2494242.4 
   25400         6.35    16490.267    5614051.7    1277349.1     942971.6    2220320.7    2478705.4 
   25500        6.375    16647.482    5722530.9    1313167.4    951961.69    2265129.1    2463168.5 
   25600          6.4    16868.991    5825073.9    1344560.8    964628.34    2309189.1    2447631.5 
   25700        6.425    17179.571    5912904.8    1370883.5    982388.44      2353272    2432094.5 
   25800         6.45    17512.944    5986532.2    1396468.5    1001451.9    2397920.4    2416557.6 
   25900        6.475    17731.234    6057586.7    1428355.6    1013934.5      2442290    2401020.6 
   26000          6.5    17768.371    6147982.7    1469751.8    1016058.1    2485809.9    2385483.6 
   26100        6.525      17553.5    6259655.8      1525116      1003771      2528887    2369946.7 
   26200         6.55    17268.357      6392472      1583542    987465.52    2571007.6    2354409.7 
   26300        6.575    16764.113    6556545.4    1652799.6    958631.05    2611430.7    2338872.8 
   26400          6.6    16150.203    6720174.3    1726772.6    923525.51    2650298.1    2323335.8 
   26500        6.625    15383.554    6892419.9    1808231.6    879685.85    2687917.5    2307798.8 
   26600         6.65    14552.367    7078460.7    1891941.7    832155.65    2724097.4    2292261.9 
   26700        6.675    13655.918    7262940.7    1977811.9    780893.55    2758705.5    2276724.9 
   26800          6.7    12805.078    7439634.6      2059828     732239.5    2792067.5    2261187.9 
   26900        6.725     12150.13    7587363.3    2130206.9    694787.27    2824994.1      2245651 
   27000         6.75    11675.163    7700321.5    2189530.5    667626.96    2857157.5      2230114 
   27100        6.775    11292.129    7809095.6    2242997.6    645723.72    2888721.4      2214577 
   27200          6.8    11114.174    7923579.2    2284651.1    635547.65    2920198.7    2199040.1 
   27300        6.825    11049.127    8035043.3    2319338.2    631828.01    2951166.2    2183503.1 
   27400         6.85    10989.471    8166876.4    2352951.7    628416.68    2981368.4    2167966.1 
   27500        6.875     10897.47    8316443.6    2388835.5    623155.77    3011991.3    2152429.2 
   27600          6.9    10772.949    8472167.3    2429644.9    616035.21    3045680.1    2136892.2 
   27700        6.925    10651.952    8649219.6    2488022.8    609116.15    3097138.9    2121355.2 
   27800         6.95    10892.718    8909885.4    2592472.6    622884.02    3215356.6    2105818.3 
   27900        6.975    12089.668    9216640.8    2704904.7    691329.81    3396234.5    2090281.3 
   28000            7    12348.065      9497384    2832907.3    706105.89    3539013.2    2074744.3 
   28100        7.025    12558.715    9784245.2    2970272.3    718151.61    3688423.9    2059207.4 
   28200         7.05    13108.179     10101683    3106442.5    749571.88    3856014.3    2043670.4 
   28300        7.075    13328.265     10431036    3240501.7    762157.19    4002658.9    2028133.4 
   28400          7.1    13937.286     10772566      3365093    796983.12    4162076.1    2012596.5 
   28500        7.125    14923.069     11099357    3479386.6    853353.66    4332740.2    1997059.5 
   28600         7.15    16042.638     11417102    3574006.1    917374.59    4491380.7    1981522.5 
   28700        7.175    17627.128     11715934    3651925.6    1007981.3    4659906.9    1965985.6 
   28800          7.2    19617.629     11989360    3714561.5    1121805.2    4836366.7    1950448.6 
   28900        7.225    21649.785     12242657    3773914.2      1238011    5011925.3    1934911.6 
   29000         7.25    23261.593     12528205    3853019.1    1330179.9      5183199    1919374.7 
   29100        7.275     23979.52     12878134    3968860.2    1371233.5    5340093.7    1903837.7 
   29200          7.3    24274.436     13262327    4102346.9    1388097.8    5490444.8    1888300.7 
   29300        7.325     24140.43     13656802    4254830.8    1380434.9    5635265.7    1872763.8 
   29400         7.35    23619.606     14070433    4420673.9    1350652.4    5771326.3    1857226.8 
   29500        7.375    23023.553     14476464    4584225.3    1316567.9    5900793.3    1841689.8 
   29600          7.4    22634.569     14834646    4728618.7    1294324.4    6022943.2    1826152.9 
   29700        7.425    22448.925     15156207    4850074.7    1283708.6    6133783.4    1810615.9 
   29800         7.45    22611.775     15473096    4945802.8      1293021    6238823.8    1795078.9 
   29900        7.475    22912.787     15808051    5030046.4    1310233.9    6340280.3      1779542 
   30000          7.5     23409.78     16156395    5106025.4    1338653.7    6444679.2      1764005 
   30100        7.525    23841.739     16535256    5205872.8    1363354.7    6569227.5      1748468 
   30200         7.55    23677.341     17000804    5380994.3    1353953.8    6734948.1    1732931.1 
   30300        7.575    23673.679     17528955    5585932.1    1353744.4    6939676.5    1717394.1 
   30400          7.6    23280.358     18045574    5813116.8    1331252.9    7144369.8    1701857.1 
   30500        7.625    22525.635     18507989    6046659.6    1288095.2    7334754.8    1686320.2 
   30600         7.65    22036.392     19049313    6264642.7    1260118.6    7524761.3    1670783.2 
   30700        7.675    21980.945     19602458    6457681.1    1256947.9      7714629    1655246.2 
   30800          7.7    22429.281     20120249    6619861.9    1282585.4    7902447.2    1639709.3 
   30900        7.725    23416.961     20654835    6752377.5    1339064.3    8091441.8    1624172.3 
   31000         7.75    24574.269     21170096    6873212.4    1405243.3    8278455.7    1608635.3 
   31100        7.775    24740.764     21667480    7045057.7    1414764.1    8459821.8    1593098.4 
   31200          7.8    23854.416     22197227    7271122.8    1364079.6    8635202.4    1577561.4 
   31300        7.825    22478.808     22819790    7518520.3    1285417.5    8803937.7    1562024.4 
   31400         7.85    20617.705     23451740    7784688.4    1178993.1    8963681.5    1546487.5 
   31500        7.875    18865.386     24091791    8038722.4    1078789.3    9117511.7    1530950.5 
   31600          7.9    17835.329     24653610    8250867.6      1019887    9270754.6    1515413.5 
   31700        7.925    17429.075     25129533      8425242    996655.96    9421897.9    1499876.6 
   31800         7.95    17469.027     25758680      8586037    998940.54    9584977.5    1484339.6 
   31900        7.975    17906.418     26501627    8778319.6    1023952.1    9802271.7    1468802.6 
   32000            8    18856.701     27367885    9064780.7    1078292.6     10143073    1453265.7 
   32100        8.025    20022.297     28191231    9384396.3    1144945.5     10529342    1437728.7 
   32200         8.05    20117.527     28861052    9729233.4    1150391.1     10879624    1422191.7 
   32300        8.075    20679.628     29747855     10071837      1182534     11254371    1406654.8 
   32400          8.1    22174.716     30734129     10366342    1268028.4     11634370    1391117.8 
   32500        8.125    25186.937     31729420     10605904    1440277.9     12046181    1375580.8 
   32600         8.15    28832.264     32593974     10819274    1648730.5     12468004    1360043.9 
   32700        8.175    31179.456     33387168     11079646    1782951.2     12862597    1344506.9 
   32800          8.2    31647.006     34392908     11415901    1809687.3     13225588    1328969.9 
   32900        8.225    30753.946     35509986     11799028      1758619     13557647      1313433 
   33000         8.25    29551.187     36576560     12189922      1689841     13879763      1297896 
   33100        8.275    29125.968     37395355     12518757    1665525.5     14184283      1282359 
   33200          8.3    29451.425     38266838     12787617    1684136.3     14471754    1266822.1 
   33300        8.325    29738.297     39401411     13067365    1700540.6     14767905    1251285.1 
   33400         8.35    29317.557     40644346     13455239    1676481.3     15131720    1235748.1 
   33500        8.375    29095.555     41802537     13920805    1663786.4     15584591    1220211.2 
   33600          8.4    27946.993     42938707     14418387    1598107.6     16016495    1204674.2 
   33700        8.425    27260.677     44274884     14868932    1558861.6     16427794    1189137.2 
   33800         8.45    28491.207     45685291     15235889    1629227.6     16865117    1173600.3 
   33900        8.475    30608.684     46937072     15563500    1750312.5     17313812    1158063.3 
   34000          8.5    30691.578     48270413     15988570    1755052.6     17743622    1142526.4 
   34100        8.525    28941.245     49815249     16500116    1654962.4     18155078    1126989.4 
   34200         8.55    25955.712     51184887     17058430    1484239.1     18542669    1111452.4 
   34300        8.575    24411.779     52529201     17530174    1395951.6     18926125    1095915.5 
   34400          8.6    24704.317     54080580     17936741    1412679.9     19349421    1080378.5 
   34500        8.625    25878.491     55836027     18417032    1479823.3     19896855    1064841.5 
   34600         8.65    27002.722     57736332     19048088    1544110.8     20592199    1049304.6 
   34700        8.675    27939.262     59737186     19719515    1597665.5     21317180    1033767.6 
   34800          8.7    31041.169     61850091     20310560    1775043.5     22085604    1018230.6 
   34900        8.725    36019.016     63940675     20790785    2059694.3     22850479    1002693.7 
   35000         8.75    39693.542     66075328     21322782    2269816.6     23592598    987156.69 
   35100        8.775    39264.532     68335047     22014187    2245284.3     24259471    971619.72 
   35200          8.8    37403.529     70599669     22740120    2138865.6     24878985    956082.76 
   35300        8.825    37059.641     72843342     23352839    2119200.9     25472040    940545.79 
   35400         8.85    36897.698     75144877     23956423    2109940.4     26066363    925008.82 
   35500        8.875    35109.518     77803464     24774789      2007686     26782475    909471.86 
   35600          8.9     34660.02     80771186     25640736    1981982.1     27622718    893934.89 
   35700        8.925    35646.543     83704070     26375877      2038395     28414272    878397.92 
   35800         8.95    37971.901     86696805     27046330    2171367.1     29217698    862860.96 
   35900        8.975    36399.786     90011851     27935834    2081468.1     30017302    847323.99 
   36000            9    33230.342     93383291     28875860    1900228.1     30776088    831787.03 
   36100        9.025    33081.955     96847726     29690806    1891742.8     31582549    816250.06 
   36200         9.05    35292.534 1.0090901e+08     30650241    2018151.5     32668392    800713.09 
   36300        9.075    37978.945 1.0551911e+08     31771372    2171769.9     33943142    785176.13 
   36400          9.1    43305.088 1.1020713e+08     32735618    2476337.6     35211956    769639.16 
   36500        9.125    49264.256 1.1507072e+08     33675335    2817103.8     36492439    754102.19 
   36600         9.15    48187.984 1.2012723e+08     34867214    2755558.8     37622773    738565.23 
   36700        9.175     46509.54 1.2525976e+08     36001756    2659579.4     38661336    723028.26 
   36800          9.2     44434.24 1.3063449e+08     37212977    2540906.5     39753883     707491.3 
   36900        9.225    43559.726 1.3697496e+08     38608490    2490898.7     41099389    691954.33 
   37000         9.25    45952.129 1.4339094e+08     39815733    2627704.7     42443438    676417.36 
   37100        9.275    44968.752 1.5035289e+08     41209197    2571471.7     43780669     660880.4 
   37200          9.3    43517.552 1.5786137e+08     42713077      2488487     45201564    645343.43 
   37300        9.325    46021.555 1.6622194e+08     44267002    2631674.7     46898677    629806.46 
   37400         9.35    52052.239 1.7573052e+08     45980631    2976530.5     48957162     614269.5 
   37500        9.375    60058.439 1.8553621e+08     47545050    3434353.2     50979403    598732.53 
   37600          9.4    59175.608 1.9579657e+08     49408125    3383869.8     52791995    583195.57 
   37700        9.425    56347.244 2.0650116e+08     51313689      3222134     54535823     567658.6 
   37800         9.45    55292.209 2.1853323e+08     53408215    3161803.4     56570018    552121.63 
   37900        9.475    57488.442 2.3146023e+08     55415710    3287391.8     58703102    536584.67 
   38000          9.5    56722.684 2.4590818e+08     57750693      3243603     60994296     521047.7 
   38100        9.525    61693.527 2.6239198e+08     60241062    3527853.3     63768915    505510.73 
   38200         9.55    72544.436 2.8061739e+08     62709431    4148346.6     66857777    489973.77 
   38300        9.575    73027.024 2.9990571e+08     65491635    4175942.6     69667578     474436.8 
   38400          9.6    69163.731 3.2090104e+08     68506862    3955025.9     72461888    458899.84 
   38500        9.625    72478.827 3.4473219e+08     71541875    4144594.8     75686470    443362.87 
   38600         9.65    74328.588 3.7209453e+08     75050314    4250370.7     79300685     427825.9 
   38700        9.675    86205.279 4.0305866e+08     78720274    4929521.7     83649796    412288.94 
   38800          9.7    91256.489 4.3641922e+08     82642533    5218367.7     87860901    396751.97 
   38900        9.725     90484.39 4.7276708e+08     86885495    5174216.3     92059711       381215 
   39000         9.75    97307.456 5.1494316e+08     91394750    5564383.3     96959134    365678.04 
   39100        9.775     112004.5 5.6349222e+08     96336044    6404812.2 1.0274086e+08    350141.07 
   39200          9.8    121155.19 6.1733211e+08 1.0167774e+08    6928081.1 1.0860583e+08    334604.11 
   39300        9.825    126609.18 6.7736808e+08 1.0746994e+08    7239959.4 1.147099e+08    319067.14 
   39400         9.85    141947.62 7.4850063e+08 1.1392051e+08    8117065.5 1.2203757e+08    303530.17 
   39500        9.875    154824.37 8.2973314e+08 1.2100773e+08    8853403.2 1.2986113e+08    287993.21 
   39600          9.9    163388.97 9.240205e+08 1.2891327e+08    9343157.4 1.3825643e+08    272456.24 
   39700        9.925    180752.99 1.0382562e+09 1.3778315e+08     10336093 1.4811924e+08    256919.27 
   39800         9.95    190828.71 1.173323e+09 1.4778633e+08     10912258 1.5869859e+08    241382.31 
   39900        9.975    210403.14 1.3394953e+09 1.5912045e+08     12031593 1.7115204e+08    225845.34 
   40000           10    225702.26 1.5423177e+09 1.7211237e+08     12906451 1.8501882e+08    210308.38 
   40100       10.025    249824.23 1.7978361e+09 1.8717056e+08     14285830 2.0145639e+08    194771.41 
   40200        10.05       271306 2.1197347e+09 2.0485198e+08     15514233 2.2036622e+08    179234.44 
   40300       10.075    298322.44 2.5398058e+09 2.2589664e+08     17059129 2.4295577e+08    163697.48 
ERROR: Lost atoms: original 442392 current 442391 (../thermo.cpp:439)
Last command: run 50000
