LAMMPS (29 Sep 2021)
  using 1 OpenMP thread(s) per MPI task
Reading data file ...
  orthogonal box = (-0.045790668 -0.21301866 0.0000000) to (101.84486 101.51208 615.91251)
  3 by 2 by 16 MPI processor grid
  reading atoms ...
  520712 atoms
  reading velocities ...
  520712 velocities
  read_data CPU = 1.249 seconds
281426 atoms in group g_left
239286 atoms in group g_right

CITE-CITE-CITE-CITE-CITE-CITE-CITE-CITE-CITE-CITE-CITE-CITE-CITE

Your simulation uses code contributions which should be cited:
- @article{cjiang2012
The log file lists these citations in BibTeX format.

CITE-CITE-CITE-CITE-CITE-CITE-CITE-CITE-CITE-CITE-CITE-CITE-CITE

Neighbor list info ...
  update every 1 steps, delay 10 steps, check yes
  max neighbors/atom: 2000, page size: 100000
  master list distance cutoff = 8.28721
  ghost atom cutoff = 8.28721
  binsize = 4.143605, bins = 25 25 149
  3 neighbor lists, perpetual/occasional/extra = 3 0 0
  (1) pair eam/alloy, perpetual, skip from (3)
      attributes: half, newton on
      pair build: skip
      stencil: none
      bin: none
  (2) pair edip/multi, perpetual
      attributes: full, newton on
      pair build: full/bin/atomonly
      stencil: full/bin/3d
      bin: standard
  (3) neighbor class addition, perpetual, half/full from (2)
      attributes: half, newton on
      pair build: halffull/newton
      stencil: none
      bin: none
Setting up Verlet run ...
  Unit style    : metal
  Current step  : 0
  Time step     : 0.00025
Per MPI rank memory allocation (min/avg/max) = 6.962 | 14.52 | 18.96 Mbytes
Step Time Temp Press PotEng KinEng TotEng Volume 
       0            0    7948.5357    86363.506   -2461490.2    534993.52   -1926496.6    6383832.5 
     100        0.025    7947.6342    86541.098   -2461484.5    534932.84   -1926551.7    6373467.6 
     200         0.05    7948.1199     86720.84   -2461504.9    534965.53   -1926539.4    6363102.8 
     300        0.075    7948.0816    86454.236   -2461467.5    534962.96   -1926504.5      6352738 
     400          0.1    7948.2529    87090.541   -2461490.8    534974.48   -1926516.3    6342373.1 
     500        0.125    7948.3632    86663.502   -2461516.7    534981.91   -1926534.8    6332008.3 
     600         0.15    7948.1134    87204.347   -2461492.7     534965.1   -1926527.6    6321643.5 
     700        0.175    7947.9322    87348.833     -2461471     534952.9   -1926518.1    6311278.6 
     800          0.2    7948.1482     87459.39   -2461495.2    534967.44   -1926527.8    6300913.8 
     900        0.225    7947.4902    87462.301   -2461459.2    534923.15     -1926536    6290548.9 
    1000         0.25    7948.4429    87511.519   -2461519.4    534987.27   -1926532.1    6280184.1 
    1100        0.275    7947.9244    87649.257   -2461486.8    534952.37   -1926534.4    6269819.3 
    1200          0.3    7947.6119    87811.285     -2461476    534931.34   -1926544.6    6259454.4 
    1300        0.325    7947.8575    87906.363   -2461498.4    534947.87   -1926550.6    6249089.6 
    1400         0.35    7947.3962    88047.801   -2461471.1    534916.82   -1926554.3    6238724.8 
    1500        0.375    7947.7088    88202.401   -2461507.2    534937.86   -1926569.3    6228359.9 
    1600          0.4    7947.4987    88016.593   -2461506.4    534923.72   -1926582.7    6217995.1 
    1700        0.425    7947.1273    88252.154   -2461484.5    534898.72   -1926585.7    6207630.3 
    1800         0.45    7946.8119    88680.745   -2461470.8    534877.49   -1926593.3    6197265.4 
    1900        0.475    7946.9946    88727.847   -2461482.2    534889.79   -1926592.4    6186900.6 
    2000          0.5    7947.2956    88728.358   -2461501.5    534910.05   -1926591.5    6176535.7 
    2100        0.525    7947.2966    88997.491   -2461509.6    534910.11   -1926599.5    6166170.9 
    2200         0.55    7947.3366    89307.786   -2461511.4    534912.81   -1926598.6    6155806.1 
    2300        0.575    7946.8566    89584.614   -2461466.4     534880.5   -1926585.9    6145441.2 
    2400          0.6    7947.0263    89861.848   -2461471.1    534891.93   -1926579.2    6135076.4 
    2500        0.625    7947.6021    89650.919   -2461510.3    534930.68   -1926579.7    6124711.6 
    2600         0.65    7947.6529    89669.262   -2461513.6     534934.1   -1926579.5    6114346.7 
    2700        0.675    7947.5679    90435.083   -2461509.2    534928.38   -1926580.8    6103981.9 
    2800          0.7    7948.5427    90268.147   -2461572.9    534993.99     -1926579    6093617.1 
    2900        0.725    7949.3939    90997.638   -2461635.5    535051.28   -1926584.3    6083252.2 
    3000         0.75    7941.8125    93903.498   -2461152.4       534541   -1926611.4    6072887.4 
    3100        0.775    7914.8057    100752.56   -2459353.4    532723.25   -1926630.2    6062522.5 
    3200          0.8    7872.7325    110927.67   -2456502.7    529891.42   -1926611.3    6052157.7 
    3300        0.825    7823.1924    121601.03   -2453145.5    526557.01   -1926588.5    6041792.9 
    3400         0.85    7766.8678    132588.12   -2449362.3    522765.97   -1926596.3      6031428 
    3500        0.875    7712.7963    143229.18   -2445735.1    519126.56   -1926608.6    6021063.2 
    3600          0.9     7662.304     152903.4   -2442328.3    515728.07   -1926600.3    6010698.4 
    3700        0.925    7607.2373    162859.68   -2438627.9    512021.68   -1926606.2    6000333.5 
    3800         0.95    7550.5721    171056.02   -2434840.4    508207.71   -1926632.7    5989968.7 
    3900        0.975    7498.2145    178638.79   -2431322.6    504683.67     -1926639    5979603.8 
    4000            1    7443.4405    185451.76   -2427629.4    500996.99   -1926632.4      5969239 
    4100        1.025    7388.9344     193183.5     -2423980    497328.33   -1926651.7    5958874.2 
    4200         1.05    7332.7999    198051.69   -2420223.7    493550.08   -1926673.7    5948509.3 
    4300        1.075    7277.8582    203605.54   -2416514.8    489852.11   -1926662.7    5938144.5 
    4400          1.1    7226.4898    207381.98   -2413039.5    486394.65   -1926644.9    5927779.7 
    4500        1.125    7177.8787    209689.02   -2409793.4    483122.77   -1926670.6    5917414.8 
    4600         1.15    7130.4649    212521.83   -2406623.6    479931.48   -1926692.2      5907050 
    4700        1.175    7084.1998    215165.46     -2403493    476817.51   -1926675.4    5896685.2 
    4800          1.2    7037.5671    217925.79   -2400342.2    473678.79   -1926663.5    5886320.3 
    4900        1.225    6992.4359    220987.66   -2397312.7    470641.14   -1926671.5    5875955.5 
    5000         1.25    6948.7784    224061.41     -2394379    467702.67   -1926676.4    5865590.6 
    5100        1.275    6904.9255    226827.64   -2391427.5    464751.06   -1926676.5    5855225.8 
    5200          1.3    6863.5123    229556.23   -2388650.7    461963.65   -1926687.1      5844861 
    5300        1.325    6822.0415    232724.22   -2385877.2    459172.37   -1926704.8    5834496.1 
    5400         1.35    6785.7733    236873.12   -2383437.2    456731.26   -1926705.9    5824131.3 
    5500        1.375    6747.4697    241163.94   -2380855.2    454153.15     -1926702    5813766.5 
    5600          1.4    6713.5387    243438.92   -2378579.3    451869.35   -1926709.9    5803401.6 
    5700        1.425    6677.0945    248296.17   -2376133.7    449416.39   -1926717.3    5793036.8 
    5800         1.45    6642.1806    251432.77   -2373772.6    447066.44   -1926706.2      5782672 
    5900        1.475    6608.5257     255117.1   -2371498.5    444801.23   -1926697.2    5772307.1 
    6000          1.5    6575.3772    259870.31   -2369270.1    442570.09     -1926700    5761942.3 
    6100        1.525     6544.504    262895.37   -2367205.6     440492.1   -1926713.5    5751577.4 
    6200         1.55    6509.7698    265635.03   -2364884.8    438154.24   -1926730.6    5741212.6 
    6300        1.575     6473.943    270057.82   -2362484.8    435742.84     -1926742    5730847.8 
    6400          1.6    6439.2943    272950.37   -2360145.9    433410.74   -1926735.1    5720482.9 
    6500        1.625    6405.8611    276071.55   -2357876.5    431160.44   -1926716.1    5710118.1 
    6600         1.65    6368.7414     280237.1   -2355380.7    428662.02   -1926718.7    5699753.3 
    6700        1.675    6330.2076    283682.03     -2352808    426068.42   -1926739.5    5689388.4 
    6800          1.7    6295.2303     287981.4   -2350459.4    423714.19   -1926745.2    5679023.6 
    6900        1.725    6252.7771    290823.45     -2347586    420856.79   -1926729.2    5668658.8 
    7000         1.75    6213.8599    295707.85   -2344954.4    418237.38     -1926717    5658293.9 
    7100        1.775    6211.5838    298337.49   -2344808.5    418084.18   -1926724.3    5647929.1 
    7200          1.8    6202.0553    298097.44   -2344178.7    417442.85   -1926735.9    5637564.2 
    7300        1.825    6169.1186    299516.14   -2341970.3    415225.97   -1926744.3    5627199.4 
    7400         1.85    6160.1829    301908.18   -2341389.1    414624.54   -1926764.6    5616834.6 
    7500        1.875    6145.0462    306008.82   -2340387.4    413605.73   -1926781.7    5606469.7 
    7600          1.9     6107.571    308813.34   -2337866.7    411083.38   -1926783.3    5596104.9 
    7700        1.925    6106.7689    311990.75   -2337807.8    411029.39   -1926778.4    5585740.1 
    7800         1.95    6065.7712    314988.96   -2335057.6    408269.95   -1926787.6    5575375.2 
    7900        1.975      6037.23    317881.25   -2333154.8    406348.92   -1926805.9    5565010.4 
    8000            2    6022.3886    321115.68   -2332164.8    405349.99   -1926814.9    5554645.6 
    8100        2.025    5985.2769    322986.16   -2329666.4    402852.11   -1926814.3    5544280.7 
    8200         2.05    5963.5114    327570.73   -2328191.4    401387.13   -1926804.3    5533915.9 
    8300        2.075    5904.8587    332040.55   -2324240.2    397439.38   -1926800.8      5523551 
    8400          2.1    5862.2144    336678.01   -2321366.2    394569.12   -1926797.1    5513186.2 
    8500        2.125    5787.1709    340684.28   -2316298.9    389518.15   -1926780.7    5502821.4 
    8600         2.15    5748.6284    346046.48   -2313697.2    386923.96   -1926773.2    5492456.5 
    8700        2.175    5686.7921     350640.3   -2309550.5    382761.94   -1926788.5    5482091.7 
    8800          2.2    5632.4976    354464.77   -2305910.9    379107.52   -1926803.4    5471726.9 
    8900        2.225    5572.2616    359538.94   -2301839.1    375053.21   -1926785.9      5461362 
    9000         2.25    5522.6122    364589.45   -2298472.4    371711.45   -1926760.9    5450997.2 
    9100        2.275    5464.9507    368629.93   -2294602.6    367830.42   -1926772.2    5440632.3 
    9200          2.3    5409.2056    373617.78   -2290875.2    364078.37   -1926796.8    5430267.5 
    9300        2.325     5354.725     378912.3   -2287209.2    360411.43   -1926797.8    5419902.7 
    9400         2.35    5301.6766    384391.58   -2283622.4     356840.9   -1926781.5    5409537.8 
    9500        2.375    5248.8186    389031.87   -2280053.6    353283.18   -1926770.4      5399173 
    9600          2.4    5199.3891    393624.05   -2276744.5    349956.22   -1926788.3    5388808.2 
    9700        2.425    5148.7842    399034.56     -2273359    346550.14   -1926808.8    5378443.3 
    9800         2.45    5097.9159    403641.53   -2269932.4    343126.34     -1926806    5368078.5 
    9900        2.475    5051.8284    408256.02   -2266825.2    340024.32   -1926800.8    5357713.7 
   10000          2.5    5007.6235     412233.1   -2263859.4    337049.01   -1926810.3    5347348.8 
   10100        2.525    4963.4208    417194.44   -2260889.9    334073.85   -1926816.1      5336984 
   10200         2.55    4921.6575    421491.68   -2258077.7    331262.88   -1926814.8    5326619.1 
   10300        2.575    4895.0874    425339.97   -2256287.4    329474.52   -1926812.8    5316254.3 
   10400          2.6      4878.87     427058.6   -2255189.6    328382.98   -1926806.6    5305889.5 
   10500        2.625    4850.8561    428592.68   -2253292.1    326497.44   -1926794.6    5295524.6 
   10600         2.65    4827.6134    430101.14   -2251725.3    324933.04   -1926792.2    5285159.8 
   10700        2.675    4806.1862    432325.48   -2250306.9    323490.84     -1926816      5274795 
   10800          2.7     4780.837    434326.43     -2248625    321784.65   -1926840.4    5264430.1 
   10900        2.725    4762.4201    434802.81   -2247393.7    320545.06   -1926848.6    5254065.3 
   11000         2.75    4739.1205    437069.56   -2245831.7    318976.83   -1926854.9    5243700.5 
   11100        2.775    4717.1555    439099.73   -2244359.2    317498.43   -1926860.8    5233335.6 
   11200          2.8    4697.3946    439955.36   -2243033.6    316168.38   -1926865.2    5222970.8 
   11300        2.825    4670.6609    444935.96   -2241233.9    314369.01   -1926864.9    5212605.9 
   11400         2.85    4654.4428    446195.11   -2240136.5    313277.42   -1926859.1    5202241.1 
   11500        2.875    4628.8959    449802.69     -2238424    311557.92   -1926866.1    5191876.3 
   11600          2.9     4600.571     452477.2   -2236525.6    309651.46   -1926874.1    5181511.4 
   11700        2.925    4561.7531    457124.87     -2233915    307038.73   -1926876.2    5171146.6 
   11800         2.95    4529.4214    460537.09   -2231738.8    304862.58   -1926876.2    5160781.8 
   11900        2.975    4518.5237    463014.74   -2231007.1    304129.08     -1926878    5150416.9 
   12000            3    4484.3473    465822.75   -2228709.9    301828.77   -1926881.1    5140052.1 
   12100        3.025    4457.6624    468406.75   -2226911.8    300032.69   -1926879.1    5129687.3 
   12200         3.05    4442.6181    472495.07   -2225899.1    299020.09     -1926879    5119322.4 
   12300        3.075    4413.7616    476938.49   -2223957.8    297077.84     -1926880    5108957.6 
   12400          3.1    4393.6628    482172.22   -2222600.5    295725.05   -1926875.5    5098592.7 
   12500        3.125    4374.7547    488187.29   -2221318.5     294452.4   -1926866.1    5088227.9 
   12600         3.15    4335.2572    494701.07   -2218663.2    291793.94   -1926869.3    5077863.1 
   12700        3.175    4323.2409    499783.41   -2217846.9    290985.15   -1926861.8    5067498.2 
   12800          3.2    4281.8896    506771.77   -2215038.5    288201.91   -1926836.6    5057133.4 
   12900        3.225     4258.155    513980.21   -2213430.7     286604.4   -1926826.3    5046768.6 
   13000         3.25    4227.2041    520265.98   -2211369.8    284521.18   -1926848.6    5036403.7 
   13100        3.275    4180.7332    527257.71   -2208249.1    281393.36   -1926855.8    5026038.9 
   13200          3.3    4140.1342    537425.39   -2205491.8    278660.76   -1926831.1      5015674 
   13300        3.325    4078.9308    546073.56   -2201353.7    274541.33   -1926812.3    5005309.2 
   13400         3.35    4021.3515    555378.46   -2197486.7    270665.83   -1926820.8    4994944.4 
   13500        3.375    3968.4379    564739.37   -2193941.6    267104.36   -1926837.3    4984579.5 
   13600          3.4    3903.7697    573492.26   -2189582.2    262751.73   -1926830.5    4974214.7 
   13700        3.425    3850.9176    578679.14   -2185999.7     259194.4   -1926805.3    4963849.9 
   13800         3.45    3792.0003    588094.97     -2182017    255228.84   -1926788.2      4953485 
   13900        3.475    3739.7897    595063.24   -2178498.1     251714.7   -1926783.4    4943120.2 
   14000          3.5    3682.9391    602283.96   -2174671.5    247888.24   -1926783.3    4932755.4 
   14100        3.525    3629.0814    608898.24     -2171044    244263.23   -1926780.8    4922390.5 
   14200         3.55    3580.5376    613126.08   -2167768.8    240995.89   -1926772.9    4912025.7 
   14300        3.575    3531.1589    617658.19   -2164440.5    237672.35   -1926768.1    4901660.8 
   14400          3.6    3485.6835    622449.93   -2161374.8    234611.52   -1926763.2      4891296 
   14500        3.625    3445.0231    627738.46   -2158625.1    231874.79   -1926750.3    4880931.2 
   14600         3.65    3406.1711    631166.39     -2155989    229259.77   -1926729.3    4870566.3 
   14700        3.675    3368.0672    636250.54     -2153414     226695.1   -1926718.9    4860201.5 
   14800          3.7    3333.0127     641009.6   -2151057.3    224335.69   -1926721.7    4849836.7 
   14900        3.725    3292.3933    644852.53   -2148337.7    221601.71     -1926736    4839471.8 
   15000         3.75    3257.1844    650905.87   -2145992.3     219231.9   -1926760.4      4829107 
   15100        3.775    3218.4455    654938.34   -2143405.6    216624.49   -1926781.1    4818742.2 
   15200          3.8    3188.0835    659851.58   -2141367.4    214580.91   -1926786.5    4808377.3 
   15300        3.825    3172.8622    661923.06   -2140338.4     213556.4     -1926782    4798012.5 
   15400         3.85    3157.3457    663684.71   -2139304.4    212512.03   -1926792.4    4787647.6 
   15500        3.875    3131.6776     665581.8   -2137594.3    210784.38   -1926809.9    4777282.8 
   15600          3.9    3126.6542    667462.21   -2137257.7    210446.28   -1926811.4      4766918 
   15700        3.925    3103.8079    670596.86   -2135713.3    208908.55   -1926804.8    4756553.1 
   15800         3.95    3085.2213    674342.98   -2134455.4    207657.55   -1926797.8    4746188.3 
   15900        3.975     3077.807    675305.32   -2133940.7    207158.51   -1926782.2    4735823.5 
   16000            4    3049.5452    680343.22   -2132018.3    205256.29     -1926762    4725458.6 
   16100        4.025    3045.0073    685064.73   -2131717.2    204950.85   -1926766.4    4715093.8 
   16200         4.05     3009.222    688978.64   -2129340.6    202542.25   -1926798.3      4704729 
   16300        4.075    2997.3248    694417.93   -2128552.3    201741.48   -1926810.8    4694364.1 
   16400          4.1    2976.8085    700166.88   -2127143.4    200360.58   -1926782.8    4683999.3 
   16500        4.125    2946.1286    704541.31   -2125058.1    198295.61   -1926762.5    4673634.4 
   16600         4.15    2920.3945    711019.24   -2123336.8    196563.52   -1926773.2    4663269.6 
   16700        4.175    2861.3089    716996.62   -2119370.9    192586.63   -1926784.2    4652904.8 
   16800          4.2    2821.4009    724907.57   -2116683.4    189900.54   -1926782.8    4642539.9 
   16900        4.225    2776.9313    731429.62   -2113692.4    186907.41     -1926785    4632175.1 
   17000         4.25    2724.6264    736297.06     -2110171    183386.92   -1926784.1    4621810.3 
   17100        4.275    2694.0776    740216.33   -2108100.3    181330.76   -1926769.6    4611445.4 
   17200          4.3    2644.3194    744356.96   -2104739.9    177981.68   -1926758.2    4601080.6 
   17300        4.325    2610.6202    748234.73   -2102491.1    175713.48   -1926777.6    4590715.8 
   17400         4.35    2563.1019    756197.86   -2099304.4    172515.16   -1926789.3    4580350.9 
   17500        4.375    2511.5517    759119.25   -2095821.2    169045.46   -1926775.7    4569986.1 
   17600          4.4    2464.3537     766880.9   -2092630.5     165868.7   -1926761.8    4559621.2 
   17700        4.425    2413.2391    771949.51   -2089194.1    162428.31   -1926765.8    4549256.4 
   17800         4.45    2364.5268    775904.95   -2085920.8    159149.63   -1926771.2    4538891.6 
   17900        4.475    2318.9124    786007.92   -2082839.6    156079.45   -1926760.2    4528526.7 
   18000          4.5    2262.4238    788804.95   -2079020.9    152277.37   -1926743.5    4518161.9 
   18100        4.525    2228.3633    792932.31   -2076682.7    149984.85   -1926697.9    4507797.1 
   18200         4.55    2175.8491    799943.47   -2073017.3    146450.27     -1926567    4497432.2 
   18300        4.575    2141.5994    804595.69   -2070612.6    144145.02   -1926467.6    4487067.4 
   18400          4.6      2106.65    810344.56     -2067380    141792.67   -1925587.4    4476702.5 
   18500        4.625    2147.1205    818541.31   -2063952.6    144516.62     -1919436    4466337.7 
   18600         4.65    2182.9581    826676.47   -2061040.4    146928.75   -1914111.6    4455972.9 
   18700        4.675     2216.982    834722.31   -2057512.9    149218.81   -1908294.1      4445608 
   18800          4.7    2246.9837    842088.53   -2055032.3    151238.14   -1903794.2    4435243.2 
   18900        4.725    2289.1461    848522.62   -2052753.8    154075.97   -1898677.8    4424878.4 
   19000         4.75    2334.8155    858355.59     -2050096    157149.85   -1892946.1    4414513.5 
   19100        4.775    2368.5888    865749.59   -2047800.9    159423.03   -1888377.9    4404148.7 
   19200          4.8    2405.6376    872296.73   -2045796.6    161916.68     -1883880    4393783.9 
   19300        4.825    2474.7976    880856.95   -2043876.6    166571.65   -1877304.9      4383419 
   19400         4.85    2473.5911    892470.81   -2038388.3    166490.44   -1871897.9    4373054.2 
   19500        4.875    2402.0265    904671.47   -2029252.9    161673.63   -1867579.2    4362689.3 
   19600          4.9    2388.3768    917829.15     -2023332    160754.91   -1862577.1    4352324.5 
   19700        4.925    2348.7279    932437.01   -2013900.9    158086.25   -1855814.6    4341959.7 
   19800         4.95    2327.0247    947355.24   -2006765.4    156625.47   -1850139.9    4331594.8 
   19900        4.975    2283.3354       957703   -1998223.4    153684.87   -1844538.5      4321230 
   20000            5    2316.5091    970670.03   -1992278.4     155917.7   -1836360.7    4310865.2 
   20100        5.025     2309.004    977887.13   -1983704.2    155412.55   -1828291.7    4300500.3 
   20200         5.05    2361.8736    987309.58   -1977105.3    158971.05   -1818134.2    4290135.5 
   20300        5.075    2435.9852    1000083.9     -1968906    163959.29   -1804946.7    4279770.7 
   20400          5.1    2513.4724    1012017.5   -1961705.4    169174.74   -1792530.6    4269405.8 
   20500        5.125    2542.1613    1022754.9   -1953164.4    171105.71   -1782058.7      4259041 
   20600         5.15    2596.7525      1034916   -1944931.6    174780.08   -1770151.6    4248676.1 
   20700        5.175    2655.5438    1051273.7   -1934955.1    178737.16   -1756217.9    4238311.3 
   20800          5.2    2719.1435    1068231.9   -1925256.8    183017.88   -1742238.9    4227946.5 
   20900        5.225    2783.8051      1084787   -1915867.7    187370.07   -1728497.6    4217581.6 
   21000         5.25    2881.3615    1098770.8   -1906270.1    193936.31   -1712333.8    4207216.8 
   21100        5.275    2979.2007    1112059.5   -1894049.4     200521.6   -1693527.8      4196852 
   21200          5.3    3085.2971    1128132.5   -1882256.4    207662.64   -1674593.8    4186487.1 
   21300        5.325    3160.2613    1149263.4   -1868423.4    212708.27   -1655715.1    4176122.3 
   21400         5.35    3249.0115    1170744.2   -1854325.9     218681.8   -1635644.1    4165757.5 
   21500        5.375    3326.3855    1193002.2   -1839354.1    223889.62   -1615464.4    4155392.6 
   21600          5.4    3398.0429    1216373.3   -1824531.6    228712.69   -1595818.9    4145027.8 
   21700        5.425     3478.097    1237773.5   -1809972.9     234100.9     -1575872    4134662.9 
   21800         5.45    3591.3556    1263740.4   -1796688.2    241724.01   -1554964.1    4124298.1 
   21900        5.475    3729.6703    1284751.9     -1784724    251033.59   -1533690.4    4113933.3 
   22000          5.5    3868.5758    1313187.1   -1773271.3    260382.92   -1512888.3    4103568.4 
   22100        5.525    4017.8679    1334168.2     -1762820    270431.35   -1492388.6    4093203.6 
   22200         5.55    4177.2254    1356838.6   -1752758.7    281157.26   -1471601.4    4082838.8 
   22300        5.575    4338.9584      1377903   -1742775.9    292043.05   -1450732.8    4072473.9 
   22400          5.6    4477.4049    1399677.7   -1731914.4     301361.5   -1430552.9    4062109.1 
   22500        5.625    4630.3832      1415321   -1722240.7    311658.04   -1410582.7    4051744.2 
   22600         5.65    4773.2885    1430139.1   -1712276.3    321276.59   -1390999.7    4041379.4 
   22700        5.675    4917.5887    1445604.7   -1702674.5    330989.02   -1371685.4    4031014.6 
   22800          5.7    5043.6173    1457327.1   -1692805.7    339471.65   -1353334.1    4020649.7 
   22900        5.725    5158.4347    1471111.2   -1683192.8    347199.69   -1335993.1    4010284.9 
   23000         5.75    5266.7477    1484145.2   -1673586.9    354489.93   -1319096.9    3999920.1 
   23100        5.775    5357.5808    1501571.1   -1663240.9    360603.65   -1302637.2    3989555.2 
   23200          5.8    5450.6676    1514167.7   -1653104.3    366869.06   -1286235.3    3979190.4 
   23300        5.825    5528.4625    1531130.6     -1642431    372105.22   -1270325.8    3968825.6 
   23400         5.85    5621.4067    1542834.3   -1632663.7    378361.03   -1254302.7    3958460.7 
   23500        5.875    5706.5045    1554562.9   -1622083.4    384088.72   -1237994.7    3948095.9 
   23600          5.9    5790.8215    1564885.6   -1611269.1    389763.86   -1221505.2      3937731 
   23700        5.925    5875.9713    1575693.7   -1600583.7    395495.05   -1205088.6    3927366.2 
   23800         5.95    5963.4212    1592615.8   -1589750.6    401381.06   -1188369.6    3917001.4 
   23900        5.975    6055.4437    1606981.9   -1578522.2    407574.84   -1170947.4    3906636.5 
   24000            6    6167.8758    1624099.9   -1568506.5    415142.32   -1153364.2    3896271.7 
   24100        6.025    6280.9739    1641130.2   -1559013.2    422754.63   -1136258.5    3885906.9 
   24200         6.05    6393.4128      1658295   -1550188.1    430322.58   -1119865.5      3875542 
   24300        6.075    6490.8486      1674661   -1541229.5    436880.71   -1104348.8    3865177.2 
   24400          6.1    6572.1592    1693921.9   -1532128.3     442353.5   -1089774.8    3854812.4 
   24500        6.125    6622.0281    1714682.2   -1521571.3    445710.03   -1075861.3    3844447.5 
   24600         6.15    6646.8063    1733298.8   -1510016.1    447377.79   -1062638.3    3834082.7 
   24700        6.175    6659.0558      1753890   -1498420.8    448202.27   -1050218.5    3823717.8 
   24800          6.2    6651.4478      1773044     -1486200    447690.19   -1038509.9      3813353 
   24900        6.225    6638.7703    1792796.2   -1473852.7     446836.9   -1027015.8    3802988.2 
   25000         6.25    6635.1818    1814790.3     -1461958    446595.37   -1015362.6    3792623.3 
   25100        6.275    6649.4097    1833210.1   -1451112.8    447553.01   -1003559.8    3782258.5 
   25200          6.3    6699.7981    1846304.4   -1442465.1    450944.51   -991520.54    3771893.7 
   25300        6.325    6740.3725    1861813.3   -1432843.3    453675.46   -979167.85    3761528.8 
   25400         6.35    6791.8049    1874960.7   -1423368.8    457137.23   -966231.59      3751164 
   25500        6.375    6858.9357    1891718.5   -1414113.4    461655.62   -952457.81    3740799.2 
   25600          6.4    6923.0204      1909424   -1403909.2    465968.98   -937940.19    3730434.3 
   25700        6.425    6992.8242    1930355.1   -1393276.9    470667.27   -922609.59    3720069.5 
   25800         6.45     7052.737    1952767.2   -1381713.2    474699.83    -907013.4    3709704.6 
   25900        6.475    7108.9752      1973429   -1369632.4    478485.07    -891147.3    3699339.8 
   26000          6.5    7155.2068    1994657.9   -1356544.9    481596.79   -874948.14      3688975 
   26100        6.525    7207.3794    2017663.3   -1343374.7    485108.38   -858266.33    3678610.1 
   26200         6.55    7266.7657    2040572.1   -1330463.3     489105.5   -841357.77    3668245.3 
   26300        6.575    7338.7993    2063575.9   -1318232.5    493953.88   -824278.66    3657880.5 
   26400          6.6    7429.4525    2088884.5   -1306958.2    500055.49   -806902.71    3647515.6 
   26500        6.625    7534.1053    2117314.9   -1296513.2    507099.38   -789413.78    3637150.8 
   26600         6.65    7650.1366    2145062.5   -1286588.5    514909.12   -771679.41      3626786 
   26700        6.675    7771.3552    2170785.7     -1276931       523068   -753863.05    3616421.1 
   26800          6.7    7881.7541    2195105.8   -1266555.8    530498.64   -736057.12    3606056.3 
   26900        6.725    7989.2108      2221633   -1256207.3    537731.25   -718476.09    3595691.4 
   27000         6.75    8083.5642    2246424.5   -1244915.4    544081.91   -700833.48    3585326.6 
   27100        6.775    8180.4054    2272411.6   -1233852.7    550600.01   -683252.66    3574961.8 
   27200          6.8    8276.3679    2301031.5   -1223137.8    557058.98   -666078.84    3564596.9 
   27300        6.825    8362.8295    2331154.5   -1212179.4    562878.46   -649300.96    3554232.1 
   27400         6.85    8460.9776    2357537.9   -1201984.6    569484.54   -632500.02    3543867.3 
   27500        6.875     8557.807    2389206.4   -1191947.3    576001.85   -615945.49    3533502.4 
   27600          6.9    8655.2509    2417820.5   -1182141.6    582560.53   -599581.04    3523137.6 
   27700        6.925    8765.1296    2443733.9   -1172775.7    589956.15   -582819.53    3512772.7 
   27800         6.95    8883.9265    2469747.1     -1163574    597952.03      -565622    3502407.9 
   27900        6.975    8999.8197    2501046.7   -1153934.6    605752.48   -548182.16    3492043.1 
   28000            7    9122.4766    2534184.8   -1144080.4    614008.17   -530072.23    3481678.2 
   28100        7.025     9256.273    2571850.4   -1134534.9    623013.63   -511521.25    3471313.4 
   28200         7.05    9369.6326      2608255   -1123242.6    630643.54   -492599.04    3460948.6 
   28300        7.075    9463.7054    2651855.1   -1110429.4    636975.32    -473454.1    3450583.7 
   28400          7.1    9529.7192    2698081.9   -1095462.8    641418.52    -454044.3    3440218.9 
   28500        7.125    9579.5966    2743569.7   -1079771.4    644775.63   -434995.75    3429854.1 
   28600         7.15     9604.769    2786928.3   -1062734.5    646469.91   -416264.61    3419489.2 
   28700        7.175    9623.4091    2828924.9   -1045370.3    647724.52   -397645.73    3409124.4 
   28800          7.2    9613.6392    2873896.8   -1026818.2    647066.94   -379751.27    3398759.5 
   28900        7.225    9602.3859    2912115.3   -1008592.1    646309.51   -362282.57    3388394.7 
   29000         7.25    9557.7218    2949085.9   -988726.46    643303.29   -345423.17    3378029.9 
   29100        7.275    9504.1992    2981074.8   -968499.75    639700.84   -328798.91      3367665 
   29200          7.3    9427.9079    3015183.1      -947542    634565.89   -312976.12    3357300.2 
   29300        7.325    9350.2304    3048424.8   -926789.01    629337.64   -297451.37    3346935.4 
   29400         7.35    9270.8924    3080235.1    -906276.8    623997.62   -282279.19    3336570.5 
   29500        7.375    9187.0496    3111953.5   -885731.45     618354.4   -267377.05    3326205.7 
   29600          7.4    9114.4994    3147098.8   -865769.16    613471.25   -252297.91    3315840.9 
   29700        7.425    9035.6693      3183877   -845297.53    608165.41   -237132.11      3305476 
   29800         7.45    8975.7787    3212518.5   -825861.01    604134.35   -221726.66    3295111.2 
   29900        7.475     8943.192    3244507.7   -807732.19    601941.03   -205791.17    3284746.3 
   30000          7.5    8902.9892    3273004.3   -788916.57    599235.09   -189681.47    3274381.5 
   30100        7.525    8880.1544      3309080   -770579.29    597698.14   -172881.14    3264016.7 
   30200         7.55    8857.2917    3337951.5   -752265.96    596159.32   -156106.64    3253651.8 
   30300        7.575    8838.4848    3368840.6   -733801.45    594893.48   -138907.97      3243287 
   30400          7.6    8802.2689    3402290.1   -714087.97    592455.89   -121632.08    3232922.2 
   30500        7.625    8762.8577    3438640.7   -694009.17    589803.24   -104205.93    3222557.3 
   30600         7.65     8718.851    3470673.6   -673661.74    586841.27   -86820.468    3212192.5 
   30700        7.675    8673.5537    3501144.1   -652731.34    583792.43   -68938.907    3201827.7 
   30800          7.7    8627.4286    3533262.6   -631910.68    580687.89   -51222.796    3191462.8 
   30900        7.725     8560.907    3567356.8   -609617.88     576210.5    -33407.38      3181098 
   31000         7.75    8520.6743    3594068.4   -589125.07    573502.55   -15622.515    3170733.1 
   31100        7.775    8445.7657      3628925   -566567.99    568460.67    1892.6765    3160368.3 
   31200          7.8    8389.4677      3657359   -545413.25    564671.41    19258.152    3150003.5 
   31300        7.825    8313.9368      3688386   -523297.73    559587.64    36289.904    3139638.6 
   31400         7.85    8255.9281    3721941.6   -502591.73    555683.23    53091.507    3129273.8 
   31500        7.875    8187.9739    3754797.1   -481637.98    551109.42     69471.44      3118909 
   31600          7.9    8131.9162    3784716.1   -461657.65    547336.35    85678.692    3108544.1 
   31700        7.925    8088.8821    3822896.7   -442676.42    544439.84    101763.42    3098179.3 
   31800         7.95    8046.0578    3858376.8   -424170.16    541557.46    117387.29    3087814.5 
   31900        7.975    8033.1587    3891546.6   -407710.85    540689.25    132978.41    3077449.6 
   32000            8    7993.5961    3924663.9   -389406.68     538026.4    148619.73    3067084.8 
   32100        8.025    7942.8374    3968893.2   -370440.65    534609.98    164169.33    3056719.9 
   32200         8.05    7883.3198    4013237.9   -350900.16    530604.02    179703.86    3046355.1 
   32300        8.075    7807.9027    4056588.8   -330099.45    525527.91    195428.46    3035990.3 
   32400          8.1      7733.38    4098025.3   -309074.88    520511.99    211437.11    3025625.4 
   32500        8.125     7646.159    4144816.4   -287444.65    514641.39    227196.74    3015260.6 
   32600         8.15    7580.7088    4181748.1   -267012.28    510236.13    243223.85    3004895.8 
   32700        8.175    7489.3562    4222549.6   -244853.97    504087.44    259233.47    2994530.9 
   32800          8.2    7424.1131    4266125.4   -224286.71    499696.11     275409.4    2984166.1 
   32900        8.225     7336.083      4307296   -202054.64    493771.06    291716.41    2973801.2 
   33000         8.25    7238.6909    4351824.9   -179445.98    487215.87    307769.89    2963436.4 
   33100        8.275    7159.8393    4394933.4   -157765.79    481908.59    324142.79    2953071.6 
   33200          8.3    7084.1084    4438721.3   -136417.45    476811.36    340393.91    2942706.7 
   33300        8.325    7007.3264    4483551.8    -114612.1    471643.37    357031.27    2932341.9 
   33400         8.35     6966.672    4524412.2    -95121.54    468907.04     373785.5    2921977.1 
   33500        8.375    6925.7915    4567411.8   -74832.959    466155.49    391322.53    2911612.2 
   33600          8.4    6962.9864    4610751.3   -57362.437    468658.98    411296.54    2901247.4 
   33700        8.425    7016.9652    4654223.3   -37073.487    472292.14    435218.65    2890882.6 
   33800         8.45    7170.5949      4702498    -18019.59    482632.52    464612.93    2880517.7 
   33900        8.475    7336.1746    4759489.5     2352.798    493777.22    496130.02    2870152.9 
   34000          8.5    7514.1783    4808664.2    23493.639    505758.15    529251.79      2859788 
   34100        8.525    7642.9228    4862747.8    48390.543    514423.58    562814.12    2849423.2 
   34200         8.55    7806.6996    4918304.7    73250.164    525446.93     598697.1    2839058.4 
   34300        8.575    7940.0322      4978259     100824.9    534421.17    635246.07    2828693.5 
   34400          8.6    8028.8886    5041273.5    131077.47    540401.85    671479.32    2818328.7 
   34500        8.625     8113.481    5112274.9    163167.53    546095.52    709263.05    2807963.9 
   34600         8.65    8186.7763    5174377.3    197275.47    551028.82    748304.29      2797599 
   34700        8.675    8258.7424      5256103    231456.17    555872.66    787328.83    2787234.2 
   34800          8.7    8362.6397    5325724.5    266122.49    562865.69    828988.18    2776869.4 
   34900        8.725      8514.48    5404901.3    299774.42    573085.64    872860.05    2766504.5 
   35000         8.75     8663.299    5478473.4    335408.95    583102.22    918511.17    2756139.7 
   35100        8.775    8888.5213    5561421.2    369280.29     598261.3    967541.59    2745774.8 
   35200          8.8    9080.4684    5641710.5    406872.89    611180.71    1018053.6      2735410 
   35300        8.825    9282.9604    5740940.9    444580.56    624809.88    1069390.4    2725045.2 
   35400         8.85    9503.8118    5834202.2    482055.31    639674.77    1121730.1    2714680.3 
   35500        8.875    9720.3391    5927765.5    520447.75    654248.61    1174696.4    2704315.5 
   35600          8.9     9901.683      6025090     560602.2    666454.35    1227056.6    2693950.7 
   35700        8.925    10099.781    6120802.6     599478.6    679787.74    1279266.3    2683585.8 
   35800         8.95    10252.034    6220666.1    640327.74    690035.48    1330363.2      2673221 
   35900        8.975    10402.457    6316955.1     679811.2    700160.07    1379971.3    2662856.2 
   36000            9    10550.329    6409848.3     718483.5    710112.86    1428596.4    2652491.3 
   36100        9.025    10666.129    6500030.8    758702.27    717907.07    1476609.3    2642126.5 
   36200         9.05    10800.928    6588555.4    797509.52    726980.01    1524489.5    2631761.6 
   36300        9.075    10946.163    6682554.8    836987.88    736755.32    1573743.2    2621396.8 
   36400          9.1    11089.593    6779062.3    878571.05    746409.26    1624980.3      2611032 
   36500        9.125    11299.879    6881442.2    917705.38    760562.98    1678268.4    2600667.1 
   36600         9.15    11516.724    6986225.8    957849.87    775158.19    1733008.1    2590302.3 
   36700        9.175    11717.666    7100451.8    999424.38    788683.02    1788107.4    2579937.5 
   36800          9.2    11945.306    7209731.5    1039387.2    804004.84      1843392    2569572.6 
   36900        9.225    12135.989    7316936.3    1082803.6    816839.16    1899642.8    2559207.8 
   37000         9.25    12367.797    7421736.4    1124571.8    832441.53    1957013.3    2548842.9 
   37100        9.275    12563.629      7528897    1169920.4    845622.42    2015542.8    2538478.1 
   37200          9.3     12831.22    7643339.2      1210990    863633.24    2074623.2    2528113.3 
   37300        9.325    13086.085    7761649.1    1254362.8    880787.45    2135150.3    2517748.4 
   37400         9.35    13331.876    7894630.7    1299399.3    897330.99    2196730.3    2507383.6 
   37500        9.375    13631.193    8044510.3      1341464    917477.13    2258941.1    2497018.8 
   37600          9.4    13927.551    8187097.2    1384513.6    937424.16    2321937.8    2486653.9 
   37700        9.425    14228.239    8336247.4      1427122    957662.66    2384784.6    2476289.1 
   37800         9.45    14545.488    8480919.7    1467678.7    979015.76    2446694.4    2465924.3 
   37900        9.475    14826.273    8633697.3    1509194.8    997914.61    2507109.4    2455559.4 
   38000          9.5    15057.776      8798479    1552286.3    1013496.4    2565782.7    2445194.6 
   38100        9.525    15228.708    8975920.2    1599023.7    1025001.4    2624025.1    2434829.7 
   38200         9.55     15371.55    9160918.6    1647204.3    1034615.7      2681820    2424464.9 
   38300        9.575     15404.69    9348690.3    1702651.3    1036846.2    2739497.5    2414100.1 
   38400          9.6    15452.203    9536434.3    1757502.3    1040044.2    2797546.5    2403735.2 
   38500        9.625    15425.069    9718498.6    1817845.2    1038217.9    2856063.2    2393370.4 
   38600         9.65    15354.608    9886749.8    1880836.6    1033475.3      2914312    2383005.6 
   38700        9.675    15261.757     10046324    1945420.9    1027225.8    2972646.7    2372640.7 
   38800          9.7    15141.266     10203489    2012018.3    1019115.9    3031134.1    2362275.9 
   38900        9.725    14993.739     10348231    2080429.6    1009186.3    3089615.9    2351911.1 
   39000         9.75    14898.162     10495779    2145697.5    1002753.3    3148450.8    2341546.2 
   39100        9.775    14785.415     10667807    2212928.4    995164.58      3208093    2331181.4 
   39200          9.8    14710.988     10827447    2278303.4    990155.12    3268458.5    2320816.5 
   39300        9.825    14609.581     10972113    2345530.2    983329.66    3328859.9    2310451.7 
   39400         9.85    14494.447     11139939      2413904    975580.35    3389484.4    2300086.9 
   39500        9.875    14364.685     11297297    2483932.2    966846.43    3450778.7      2289722 
   39600          9.9    14256.376     11448764      2552832    959556.44    3512388.4    2279357.2 
   39700        9.925    14089.541     11616190      2624904    948327.27    3573231.3    2268992.4 
   39800         9.95    13966.103     11777991    2693828.9    940019.01    3633847.9    2258627.5 
   39900        9.975    13826.928     11947543    2763254.3    930651.53    3693905.8    2248262.7 
   40000           10    13657.373     12116049      2834041    919239.26    3753280.3    2237897.9 
   40100       10.025    13499.669     12305821    2904317.2    908624.65    3812941.9      2227533 
   40200        10.05    13268.661     12505436    2979789.7    893076.12    3872865.8    2217168.2 
   40300       10.075    13120.962     12676594    3050983.5    883134.96    3934118.5    2206803.3 
   40400         10.1    12948.297     12870516    3126766.7    871513.36    3998280.1    2196438.5 
   40500       10.125    12862.119     13051588    3201920.3    865712.97    4067633.3    2186073.7 
   40600        10.15    12884.863     13239564    3276144.6    867243.81    4143388.4    2175708.8 
   40700       10.175    13016.181     13423104    3351123.3     876082.4    4227205.7      2165344 
