LAMMPS (29 Sep 2021)
  using 1 OpenMP thread(s) per MPI task
Reading restart file ...
  restart file = 29 Sep 2021, LAMMPS = 29 Sep 2021
  restoring atom style atomic from restart
  orthogonal box = (-0.75390844 -0.76183367 0.0000000) to (101.82658 101.83450 619.31500)
  2 by 3 by 16 MPI processor grid
  pair style hybrid/overlay stores no restart info
  428002 atoms
  read_restart CPU = 0.185 seconds
Resetting global fix info from restart file:
  fix style: npt, fix ID: 2

CITE-CITE-CITE-CITE-CITE-CITE-CITE-CITE-CITE-CITE-CITE-CITE-CITE

Your simulation uses code contributions which should be cited:
- @article{cjiang2012
The log file lists these citations in BibTeX format.

CITE-CITE-CITE-CITE-CITE-CITE-CITE-CITE-CITE-CITE-CITE-CITE-CITE

All restart file global fix info was re-assigned
Unused restart file peratom fix info:
  fix style: STORE, fix ID: spatialbins_COMPUTE_STORE
Neighbor list info ...
  update every 1 steps, delay 10 steps, check yes
  max neighbors/atom: 2000, page size: 100000
  master list distance cutoff = 8.28721
  ghost atom cutoff = 8.28721
  binsize = 4.143605, bins = 25 25 150
  3 neighbor lists, perpetual/occasional/extra = 3 0 0
  (1) pair eam/alloy, perpetual, skip from (3)
      attributes: half, newton on
      pair build: skip
      stencil: none
      bin: none
  (2) pair edip/multi, perpetual
      attributes: full, newton on
      pair build: full/bin/atomonly
      stencil: full/bin/3d
      bin: standard
  (3) neighbor class addition, perpetual, half/full from (2)
      attributes: half, newton on
      pair build: halffull/newton
      stencil: none
      bin: none
Setting up Verlet run ...
  Unit style    : metal
  Current step  : 11000132
  Time step     : 0.00025
Per MPI rank memory allocation (min/avg/max) = 4.711 | 11.82 | 17.60 Mbytes
Step Time Temp PotEng E_pair TotEng Press Volume Lx Ly Lz CPULeft 
11000132            0    300.16538     -1790934     -1790934   -1774327.8   -133.70103    6517907.6    102.58049    102.59634      619.315            0 
11010000        2.467    300.22022   -1790920.1   -1790920.1   -1774310.9    80.273492    6516964.4    102.57691    102.58506      619.315    25925.369 
11020000        4.967    299.94544   -1790891.8   -1790891.8   -1774297.8   -164.85753    6519494.5    102.59609    102.60571      619.315    25699.311 
11030000        7.467     299.7736   -1790914.7   -1790914.7   -1774330.2   -19.943762    6518850.7    102.58984    102.60182      619.315    25451.826 
11040000        9.967    299.62701   -1790919.6   -1790919.6   -1774343.2    -45.28931    6519221.3    102.59553    102.60196      619.315    25195.564 
11050000       12.467    299.81426   -1790921.3   -1790921.3   -1774334.5    79.096199    6519797.3     102.6059    102.60066      619.315    24938.644 
11060000       14.967    299.71675   -1790932.3   -1790932.3   -1774350.9    24.090167    6520644.6    102.60567    102.61422      619.315    24693.207 
11070000       17.467     300.0165   -1790913.4   -1790913.4   -1774315.5    70.271829    6520808.6    102.60586    102.61662      619.315    24436.222 
11080000       19.967    299.96802   -1790948.9   -1790948.9   -1774353.7    8.8734946    6519869.6    102.60603    102.60167      619.315    24175.909 
11090000       22.467    300.49689   -1790956.5   -1790956.5   -1774331.9   -12.610109    6519057.8    102.59437    102.60055      619.315     23911.08 
11100000       24.967    299.55251   -1790912.1   -1790912.1   -1774339.8    20.935351    6518305.7    102.58976    102.59333      619.315    23653.312 
11110000       27.467    299.34042   -1790918.3   -1790918.3   -1774357.8   -96.883161    6518703.8    102.58947    102.59988      619.315    23395.801 
11120000       29.967    299.65246   -1790925.3   -1790925.3   -1774347.5   -121.95635    6517548.2    102.58331    102.58785      619.315    23131.634 
11130000       32.467    300.36531     -1790910     -1790910   -1774292.7   -84.360925    6518774.6    102.59932    102.59115      619.315    22867.987 
11140000       34.967    300.15838   -1790918.9   -1790918.9   -1774313.1    24.409051    6518555.2     102.5963    102.59071      619.315    22608.598 
11150000       37.467    299.64751   -1790914.1   -1790914.1   -1774336.6   -34.811867    6519243.9    102.60007    102.59779      619.315    22344.431 
11160000       39.967    300.22735   -1790918.2   -1790918.2   -1774308.5   -28.790174    6519763.4     102.5964    102.60963      619.315    22079.583 
11170000       42.467    299.98741   -1790932.8   -1790932.8   -1774336.4    132.61182    6519710.2    102.60497    102.60022      619.315    21819.803 
11180000       44.967    299.79439     -1790923     -1790923   -1774337.3    119.83422      6519290    102.59224    102.60634      619.315    21561.174 
11190000       47.467      299.537   -1790933.2   -1790933.2   -1774361.8   -37.076331    6520355.1    102.60584     102.6095      619.315    21299.462 
11200000       49.967    299.60731   -1790925.7   -1790925.7   -1774350.3    78.243011    6519066.9    102.59747     102.5976      619.315    21036.486 
11210000       52.467    300.61377   -1790938.8   -1790938.8   -1774307.8   -11.539952    6518770.8    102.59525    102.59516      619.315    20775.472 
11220000       54.967    300.17856   -1790884.6   -1790884.6   -1774277.7   -35.590342    6518292.3    102.58762    102.59526      619.315    20513.146 
11230000       57.467    300.35563   -1790910.1   -1790910.1   -1774293.4   -13.056857    6518102.8    102.59245    102.58745      619.315    20250.195 
11240000       59.967     300.4131   -1790939.2   -1790939.2   -1774319.3     64.52986    6516854.5    102.57658    102.58367      619.315    19988.331 
11250000       62.467    300.69365   -1790941.4   -1790941.4     -1774306   -51.510701    6518044.3    102.57899    102.59999      619.315    19726.557 
11260000       64.967    300.01959   -1790916.9   -1790916.9   -1774318.8    6.2717886    6518610.4    102.59322    102.59466      619.315    19464.397 
11270000       67.467    300.12725   -1790931.2   -1790931.2   -1774327.1    4.4593862    6518563.7    102.59541    102.59174      619.315    19201.279 
11280000       69.967    299.47625   -1790909.7   -1790909.7   -1774341.6   -19.646078    6520382.5    102.60457     102.6112      619.315    18939.178 
11290000       72.467    300.01121   -1790937.7   -1790937.7   -1774340.1   -13.328987    6520577.4     102.6089    102.60994      619.315    18676.354 
11300000       74.967    299.75779   -1790923.2   -1790923.2   -1774339.5   -6.3345073    6520399.5    102.60086    102.61517      619.315    18411.921 
11310000       77.467     299.6947   -1790886.2   -1790886.2   -1774306.1    32.769159    6520157.2    102.60633    102.60589      619.315    18150.506 
11320000       79.967    299.80737   -1790919.8   -1790919.8   -1774333.4    86.723105    6519143.2    102.58662    102.60965      619.315     17888.55 
11330000       82.467     300.1139   -1790955.3   -1790955.3   -1774351.9   -18.228455    6518075.5    102.58246      102.597      619.315    17624.823 
11340000       84.967    300.57101   -1790941.1   -1790941.1   -1774312.5   -25.516357    6518619.2    102.58563    102.60239      619.315    17361.678 
11350000       87.467    300.18872   -1790928.9   -1790928.9   -1774321.4   -21.423404    6517892.1    102.58858    102.58799      619.315    17098.967 
11360000       89.967    300.24789   -1790947.8   -1790947.8     -1774337    66.138024    6517527.7    102.58102    102.58982      619.315    16835.718 
11370000       92.467    300.02156   -1790907.7   -1790907.7   -1774309.4   -106.65079    6519213.3    102.59552    102.60185      619.315    16571.851 
11380000       94.967    299.93875   -1790940.4   -1790940.4   -1774346.7    5.1798422    6518900.2    102.58661    102.60583      619.315    16308.312 
11390000       97.467    299.96771   -1790951.5   -1790951.5   -1774356.3   -120.42743    6519601.6    102.59892    102.60456      619.315    16046.034 
11400000       99.967    300.02612     -1790938     -1790938   -1774339.5    147.54615    6519702.8    102.59898     102.6061      619.315    15782.979 
11410000      102.467    300.28484   -1790939.9   -1790939.9   -1774327.1   0.30964514    6520385.2    102.60331     102.6125      619.315    15519.225 
11420000      104.967    299.77686   -1790941.3   -1790941.3   -1774356.6   -60.094492    6520271.5     102.6113    102.60273      619.315    15255.985 
11430000      107.467    299.85985   -1790937.5   -1790937.5   -1774348.2    8.4522502    6520345.5    102.60765    102.60754      619.315    14993.664 
11440000      109.967    299.73795   -1790939.1   -1790939.1   -1774356.6    123.25272    6519042.2    102.58855    102.60613      619.315    14730.392 
11450000      112.467    299.99548   -1790942.9   -1790942.9   -1774346.2    48.507882    6518535.5    102.59303    102.59367      619.315    14467.178 
11460000      114.967    300.27503   -1790925.8   -1790925.8   -1774313.6    15.311911    6518764.2    102.59026    102.60004      619.315    14204.719 
11470000      117.467    300.38741   -1790917.2   -1790917.2   -1774298.8   -103.23348    6518538.2    102.59103    102.59572      619.315    13941.628 
11480000      119.967    300.30253   -1790915.1   -1790915.1   -1774301.3   -129.72728    6518251.1    102.58887    102.59335      619.315    13677.747 
11490000      122.467    299.78168   -1790931.5   -1790931.5   -1774346.6   -58.075826    6518664.5    102.59042    102.59831      619.315    13414.662 
11500000      124.967    300.34294   -1790925.4   -1790925.4   -1774309.4   -84.893791    6518672.8     102.5873    102.60156      619.315    13151.718 
11510000      127.467    300.40164   -1790935.5   -1790935.5   -1774316.2   -6.6668482    6518968.4    102.59075    102.60276      619.315    12888.585 
11520000      129.967    300.30201     -1790963     -1790963   -1774349.3   -85.830554    6520392.3    102.61079    102.60513      619.315    12625.476 
11530000      132.467    300.14872   -1790926.2   -1790926.2   -1774320.9    65.870275    6519867.3    102.59967      102.608      619.315    12362.424 
11540000      134.967    300.18408   -1790943.1   -1790943.1   -1774335.9    39.516379    6519832.7    102.60553    102.60159      619.315    12100.234 
11550000      137.467    299.37421   -1790915.7   -1790915.7   -1774353.3    33.106013    6520192.6    102.60488    102.60791      619.315    11837.171 
11560000      139.967    300.23967   -1790932.6   -1790932.6   -1774322.3    84.958765    6519163.2    102.59112    102.60546      619.315    11574.019 
11570000      142.467    300.29534   -1790966.7   -1790966.7   -1774353.3   -114.05995      6519206    102.59989    102.59736      619.315    11311.378 
11580000      144.967    299.93203   -1790955.4   -1790955.4   -1774362.2    9.3443679    6518710.4    102.59915    102.59031      619.315    11048.548 
11590000      147.467     299.7814   -1790941.8   -1790941.8   -1774356.9    89.846193    6517929.2    102.58217    102.59499      619.315    10785.537 
11600000      149.967      300.202     -1790935     -1790935   -1774326.8   -100.62275    6518533.4    102.59296    102.59371      619.315    10522.325 
11610000      152.467    300.81578   -1790966.9   -1790966.9   -1774324.7    -17.84263    6518785.2    102.58797    102.60266      619.315     10259.38 
11620000      154.967    300.46085   -1790939.7   -1790939.7   -1774317.2   -148.35111    6519328.5    102.59369    102.60549      619.315     9996.508 
11630000      157.467    300.18732   -1790938.3   -1790938.3   -1774330.9     83.85304    6518587.6     102.5895    102.59803      619.315     9733.337 
11640000      159.967    299.82554   -1790936.2   -1790936.2   -1774348.9    10.789736      6519193    102.59065     102.6064      619.315    9470.2969 
11650000      162.467    299.47029   -1790946.3   -1790946.3   -1774378.6    34.816229    6519311.8    102.59823    102.60069      619.315    9207.5619 
11660000      164.967    300.36728   -1790955.9   -1790955.9   -1774338.5    56.346795    6519391.1    102.59362    102.60655      619.315    8944.4934 
11670000      167.467    299.65909   -1790942.9   -1790942.9   -1774364.7    52.866788    6519783.1    102.60201    102.60433      619.315    8681.6135 
11680000      169.967    299.89043   -1790950.8   -1790950.8   -1774359.8    53.702564    6519297.9    102.59306    102.60565      619.315    8418.8375 
11690000      172.467    299.88967   -1790929.9   -1790929.9     -1774339   -50.409583    6519611.2    102.59427    102.60936      619.315    8156.2276 
11700000      174.967     300.2965   -1790956.4   -1790956.4   -1774342.9    24.418737    6518970.8    102.58518    102.60838      619.315    7893.2765 
11710000      177.467    299.53611   -1790929.5   -1790929.5   -1774358.1   -78.858805    6518863.9    102.58868    102.60319      619.315    7630.2019 
11720000      179.967    299.59556   -1790927.3   -1790927.3   -1774352.6    68.746085    6518365.8    102.59228    102.59175      619.315     7367.444 
11730000      182.467    300.39191   -1790967.6   -1790967.6   -1774348.8    8.1856562    6518945.1    102.59676    102.59639      619.315    7104.5027 
11740000      184.967    300.14914   -1790930.7   -1790930.7   -1774325.4   -77.669815      6519249    102.59311    102.60482      619.315    6841.4657 
11750000      187.467     299.4335   -1790928.2   -1790928.2   -1774362.5   -71.486671    6519903.7    102.59753    102.61071      619.315    6578.6449 
11760000      189.967    300.32134     -1790943     -1790943   -1774328.1     98.38843    6518896.5    102.58719     102.6052      619.315    6315.6895 
11770000      192.467    300.07376   -1790945.8   -1790945.8   -1774344.7   -49.127058    6520194.6    102.59487    102.61794      619.315    6052.6235 
11780000      194.967    299.77337   -1790938.1   -1790938.1   -1774353.6   -36.433621    6520715.4    102.60734    102.61367      619.315     5789.743 
11790000      197.467    299.92121     -1790942     -1790942   -1774349.4    -8.576048    6520195.9    102.59807    102.61477      619.315    5526.7898 
11800000      199.967    299.93653   -1790942.5   -1790942.5     -1774349   -95.710728    6520108.5    102.60476     102.6067      619.315    5263.6412 
11810000      202.467    299.59651   -1790954.8   -1790954.8   -1774380.1   -46.205982    6519406.2    102.59593    102.60447      619.315    5000.6418 
11820000      204.967    299.78606   -1790924.2   -1790924.2     -1774339   -41.679298    6519067.7    102.58808      102.607      619.315    4737.7271 
11830000      207.467    299.67105   -1790929.4   -1790929.4   -1774350.5   -46.030252    6519060.9     102.5978    102.59718      619.315    4474.7055 
11840000      209.967    299.85083   -1790936.7   -1790936.7   -1774347.9     86.48788    6518111.4      102.584    102.59602      619.315     4211.549 
11850000      212.467     299.8826   -1790949.9   -1790949.9   -1774359.4    67.730561    6518468.6    102.58815     102.5975      619.315    3948.4589 
11860000      214.967    299.89405   -1790923.9   -1790923.9   -1774332.8    48.251516    6519002.3    102.58609    102.60796      619.315    3685.4663 
11870000      217.467    299.64823   -1790942.7   -1790942.7   -1774365.1     143.4744    6518786.6    102.58808    102.60257      619.315    3422.5185 
11880000      219.967    299.91117   -1790906.9   -1790906.9   -1774314.8    26.296302    6519739.5    102.59533    102.61032      619.315    3159.4748 
11890000      222.467    299.94352   -1790923.4   -1790923.4   -1774329.5   -8.9160968      6519831    102.60185    102.60524      619.315    2896.5266 
11900000      224.967    300.17236   -1790943.3   -1790943.3   -1774336.7    137.34025    6519745.9    102.60193    102.60382      619.315    2633.5326 
11910000      227.467    299.94084   -1790942.2   -1790942.2   -1774348.4    3.1670641    6520232.1    102.59322    102.62019      619.315    2370.4929 
11920000      229.967    300.16021   -1790941.7   -1790941.7   -1774335.8   -118.46526    6520266.2    102.60515     102.6088      619.315    2107.4696 
11930000      232.467    299.98805   -1790946.3   -1790946.3   -1774349.9    86.446863    6518715.4    102.58686    102.60267      619.315    1844.4947 
11940000      234.967    300.08653   -1790944.7   -1790944.7   -1774342.9    12.930445    6518912.3    102.59479    102.59784      619.315    1581.4683 
11950000      237.467    300.22545   -1790936.7   -1790936.7   -1774327.2    8.0256127    6518900.6    102.58887    102.60358      619.315    1318.4258 
11960000      239.967    299.77038   -1790921.5   -1790921.5   -1774337.2    99.749071    6518292.2    102.58098    102.60189      619.315    1055.4477 
11970000      242.467    299.97778   -1790950.4   -1790950.4   -1774354.5    87.594903    6518259.2    102.58736    102.59499      619.315    792.45033 
11980000      244.967    299.83451     -1790954     -1790954   -1774366.1   -34.436021    6518898.3    102.59289    102.59952      619.315    529.44911 
11990000      247.467    299.84085     -1790939     -1790939   -1774350.8   -105.61819    6519820.9    102.60619    102.60074      619.315     266.4614 
12000000      249.967    299.59708   -1790904.8   -1790904.8   -1774330.1    2.8246567    6519467.8    102.60027    102.60111      619.315    3.4714593 
12000132          250    300.57515   -1790934.1   -1790934.1   -1774305.3    62.077465    6519306.2    102.59103     102.6078      619.315            0 
Loop time of 26298.9 on 96 procs for 1000000 steps with 428002 atoms

Performance: 0.821 ns/day, 29.221 hours/ns, 38.024 timesteps/s
100.0% CPU use with 96 MPI tasks x 1 OpenMP threads

MPI task timing breakdown:
Section |  min time  |  avg time  |  max time  |%varavg| %total
---------------------------------------------------------------
Pair    | 2.6739     | 18208      | 25089      |5709.1 | 69.24
Neigh   | 0.011376   | 61.377     | 94.415     | 385.5 |  0.23
Comm    | 1.6018     | 3691       | 12304      |6326.0 | 14.03
Output  | 1.9658     | 1.9678     | 2.0012     |   0.3 |  0.01
Modify  | 548.91     | 4255.2     | 26183      |12730.7 | 16.18
Other   |            | 81.24      |            |       |  0.31

Nlocal:        4458.35 ave        6252 max           0 min
Histogram: 12 0 0 10 2 0 0 12 24 36
Nghost:        7911.89 ave       11018 max           0 min
Histogram: 12 0 0 0 12 0 0 0 48 24
Neighs:         0.00000 ave           0 max           0 min
Histogram: 96 0 0 0 0 0 0 0 0 0
FullNghs:      861781.0 ave 1.32992e+06 max           0 min
Histogram: 12 0 12 0 0 11 5 20 9 27

Total # of neighbors = 82730988
Ave neighs/atom = 193.29580
Neighbor list builds = 2601
Dangerous builds = 0
System init for write_restart ...
System init for write_data ...
Total wall time: 7:18:20
