LAMMPS (29 Sep 2021)
  using 1 OpenMP thread(s) per MPI task
Reading restart file ...
  restart file = 29 Sep 2021, LAMMPS = 29 Sep 2021
  restoring atom style atomic from restart
  orthogonal box = (-0.44509410 -0.41020926 0.0000000) to (101.51776 101.48288 580.45700)
  3 by 2 by 16 MPI processor grid
  pair style hybrid/overlay stores no restart info
  429844 atoms
  read_restart CPU = 0.183 seconds
Resetting global fix info from restart file:
  fix style: npt, fix ID: 2

CITE-CITE-CITE-CITE-CITE-CITE-CITE-CITE-CITE-CITE-CITE-CITE-CITE

Your simulation uses code contributions which should be cited:
- @article{cjiang2012
The log file lists these citations in BibTeX format.

CITE-CITE-CITE-CITE-CITE-CITE-CITE-CITE-CITE-CITE-CITE-CITE-CITE

All restart file global fix info was re-assigned
Unused restart file peratom fix info:
  fix style: STORE, fix ID: spatialbins_COMPUTE_STORE
Neighbor list info ...
  update every 1 steps, delay 10 steps, check yes
  max neighbors/atom: 2000, page size: 100000
  master list distance cutoff = 8.28721
  ghost atom cutoff = 8.28721
  binsize = 4.143605, bins = 25 25 141
  3 neighbor lists, perpetual/occasional/extra = 3 0 0
  (1) pair eam/alloy, perpetual, skip from (3)
      attributes: half, newton on
      pair build: skip
      stencil: none
      bin: none
  (2) pair edip/multi, perpetual
      attributes: full, newton on
      pair build: full/bin/atomonly
      stencil: full/bin/3d
      bin: standard
  (3) neighbor class addition, perpetual, half/full from (2)
      attributes: half, newton on
      pair build: halffull/newton
      stencil: none
      bin: none
Setting up Verlet run ...
  Unit style    : metal
  Current step  : 11000109
  Time step     : 0.0001
Per MPI rank memory allocation (min/avg/max) = 5.124 | 11.52 | 14.84 Mbytes
Step Time Temp PotEng E_pair TotEng Press Volume Lx Ly Lz CPULeft 
11000109            0    300.06915   -1812997.7   -1812997.7   -1796325.4   -68.044456    6030547.9    101.96286    101.89309      580.457            0 
11010000       0.9891    300.05023   -1813052.4   -1813052.4   -1796381.1   -405.94301    6030872.3     101.9671    101.89433      580.457    26328.305 
11020000       1.9891    299.98911   -1813059.6   -1813059.6   -1796391.7    315.73797    6029690.5    101.96627    101.87519      580.457    26120.382 
11030000       2.9891    300.16708   -1813033.4   -1813033.4   -1796355.7   -248.03981    6031332.1    101.96994    101.89926      580.457    25864.673 
11040000       3.9891    300.16573     -1813044     -1813044   -1796366.4   -49.504274    6030136.7    101.95812    101.89087      580.457    25601.623 
11050000       4.9891    299.91466   -1813062.2   -1813062.2   -1796398.5    123.23591      6029965    101.96132    101.88477      580.457    25329.249 
11060000       5.9891    300.06169   -1813019.3   -1813019.3   -1796347.4   -14.581929    6029967.8    101.97289    101.87326      580.457    25055.334 
11070000       6.9891     299.8635   -1813015.6   -1813015.6   -1796354.8   -112.78006    6030640.5    101.97343    101.88409      580.457    24789.228 
11080000       7.9891    299.89369   -1813032.2   -1813032.2   -1796369.6    5.7702812    6029932.7    101.96524    101.88031      580.457    24525.202 
11090000       8.9891     299.9429   -1813035.1   -1813035.1   -1796369.8    109.68406    6030377.9    101.96143    101.89164      580.457    24256.205 
11100000       9.9891    299.97297   -1813031.6   -1813031.6   -1796364.6    44.133197    6029651.8     101.9511    101.88969      580.457    23991.147 
11110000      10.9891    299.99038     -1813045     -1813045   -1796377.1     16.88008      6029658    101.96198    101.87893      580.457    23723.001 
11120000      11.9891    299.66241   -1813032.9   -1813032.9   -1796383.2    5.5828258    6029052.6     101.9517    101.87897      580.457    23456.489 
11130000      12.9891    300.17372   -1813038.9   -1813038.9   -1796360.7    155.71976    6028522.7    101.94578    101.87594      580.457    23185.474 
11140000      13.9891    300.06639     -1813030     -1813030   -1796357.9    -78.70892    6028824.8    101.94347    101.88334      580.457    22914.849 
11150000      14.9891    300.20468   -1813019.7   -1813019.7   -1796339.8    218.69045    6028475.2    101.95427    101.86665      580.457    22644.713 
11160000      15.9891    299.85371   -1813023.6   -1813023.6   -1796363.3   -92.052679    6028829.3    101.95499    101.87191      580.457    22376.019 
11170000      16.9891    300.07728   -1813023.4   -1813023.4   -1796350.6    114.49808    6029234.1    101.95228    101.88145      580.457    22109.541 
11180000      17.9891    300.12724   -1813034.8   -1813034.8   -1796359.2    155.88004    6028447.6    101.95563    101.86483      580.457    21843.618 
11190000      18.9891    300.13945   -1813012.4   -1813012.4   -1796336.2   -265.00506    6029632.5    101.95871    101.88177      580.457    21576.919 
11200000      19.9891     299.9499   -1813045.5   -1813045.5   -1796379.8   -137.63495    6028737.6    101.94813    101.87722      580.457    21308.805 
11210000      20.9891    299.98488   -1813036.8   -1813036.8   -1796369.2   -181.26025    6028925.8    101.95539    101.87314      580.457    21040.629 
11220000      21.9891    300.02932     -1813042     -1813042   -1796371.9    2.6181579    6029327.9      101.953    101.88233      580.457    20773.712 
11230000      22.9891    299.97431   -1813031.8   -1813031.8   -1796364.8    28.966723    6029637.4    101.94913    101.89142      580.457    20507.318 
11240000      23.9891    300.19418   -1812997.4   -1812997.4   -1796318.2    215.08618    6029519.4    101.95623    101.88233      580.457    20241.077 
11250000      24.9891      299.956     -1813041     -1813041     -1796375    123.50523    6029701.8    101.96352    101.87813      580.457    19974.815 
11260000      25.9891    299.93648   -1813019.9   -1813019.9   -1796354.9    381.05384    6028968.5    101.95145     101.8778      580.457     19709.58 
11270000      26.9891    299.93352   -1813011.3   -1813011.3   -1796346.6   -44.654161      6030509    101.97239     101.8829      580.457      19443.4 
11280000      27.9891    299.97761   -1813067.8   -1813067.8   -1796400.6    199.06369    6029695.9    101.96099    101.88056      580.457    19177.203 
11290000      28.9891    300.28548     -1813035     -1813035   -1796350.7    139.68771    6030280.6    101.96313     101.8883      580.457    18911.737 
11300000      29.9891    299.98977   -1813040.5   -1813040.5   -1796372.6   -142.99427      6030733    101.97104    101.88804      580.457    18646.461 
11310000      30.9891    299.76373   -1813021.9   -1813021.9   -1796366.5    69.864724    6030132.4    101.96351    101.88541      580.457     18380.48 
11320000      31.9891     300.0876   -1813017.1   -1813017.1   -1796343.8    31.029612    6030183.7     101.9644    101.88539      580.457    18114.566 
11330000      32.9891    300.09684   -1813025.9   -1813025.9   -1796352.1    4.2655005    6030355.9    101.96635    101.88635      580.457    17849.141 
11340000      33.9891    299.79798   -1813055.8   -1813055.8   -1796398.5   -76.103925    6030155.1    101.96137    101.88793      580.457    17583.579 
11350000      34.9891    299.95129   -1813054.5   -1813054.5   -1796388.7   -87.293434      6029820    101.95527    101.88837      580.457    17317.006 
11360000      35.9891    300.12557   -1813023.4   -1813023.4     -1796348   -83.450329    6030091.3    101.96515    101.88308      580.457    17053.799 
11370000      36.9891    299.80171   -1813034.9   -1813034.9   -1796377.5    179.16289    6028966.7     101.9564    101.87282      580.457    16787.333 
11380000      37.9891    300.14253   -1813024.5   -1813024.5   -1796348.1   -51.655869    6028973.1    101.95915    101.87018      580.457    16520.462 
11390000      38.9891    300.22508   -1813036.8   -1813036.8   -1796355.8    135.46564    6028839.4    101.95751    101.86957      580.457    16253.957 
11400000      39.9891    300.34851   -1813046.4   -1813046.4   -1796358.5     204.3382    6029019.2    101.95758    101.87253      580.457    15986.882 
11410000      40.9891    299.77328   -1813019.8   -1813019.8   -1796363.9   -281.36186    6029568.7    101.95474    101.88465      580.457     15721.09 
11420000      41.9891    299.92646   -1813019.3   -1813019.3   -1796354.9    51.360421    6028271.8    101.95182    101.86566      580.457    15454.003 
11430000      42.9891    300.06491   -1813057.4   -1813057.4   -1796385.3    49.314583    6028739.3    101.95832    101.86706      580.457    15186.892 
11440000      43.9891    299.85751   -1813012.8   -1813012.8   -1796352.2   -224.99645    6029662.7     101.9557    101.88528      580.457    14920.088 
11450000      44.9891     299.9051   -1813025.9   -1813025.9   -1796362.7   -22.169139    6029113.2    101.95543    101.87627      580.457    14653.503 
11460000      45.9891    299.94616   -1813033.2   -1813033.2   -1796367.7    95.104606      6029068    101.95676    101.87417      580.457    14387.186 
11470000      46.9891    300.16497   -1812998.2   -1812998.2   -1796320.6    116.97488    6028859.2    101.95086    101.87655      580.457    14120.817 
11480000      47.9891    299.67922   -1813013.5   -1813013.5   -1796362.9   -158.81708    6029309.3    101.95529    101.87972      580.457    13854.652 
11490000      48.9891    300.31809   -1813012.9   -1813012.9   -1796326.8   -112.48443    6028497.4    101.94649     101.8748      580.457    13587.801 
11500000      49.9891    300.03997     -1813017     -1813017   -1796346.3   -22.743911    6029552.2    101.96379    101.87534      580.457    13321.304 
11510000      50.9891    299.91049   -1813036.9   -1813036.9   -1796373.4    221.05755    6028587.9    101.95665    101.86618      580.457    13054.811 
11520000      51.9891    300.16493   -1813046.2   -1813046.2   -1796368.5    15.201117    6029616.4    101.95644    101.88376      580.457    12789.721 
11530000      52.9891    299.88116     -1813097     -1813097   -1796435.1    65.105446    6029598.5    101.95415    101.88575      580.457    12523.128 
11540000      53.9891    299.91655   -1813006.4   -1813006.4   -1796342.6   -97.725211    6030669.8    101.96681     101.8912      580.457    12256.706 
11550000      54.9891    299.88369   -1813051.9   -1813051.9   -1796389.9    198.05233    6029376.6    101.95937    101.87678      580.457    11990.644 
11560000      55.9891    299.84578   -1813005.8   -1813005.8   -1796345.9    27.371627    6029145.7    101.95173    101.88051      580.457    11724.449 
11570000      56.9891    300.02594   -1813037.2   -1813037.2   -1796367.3    -49.91744    6029571.5    101.96094     101.8785      580.457    11457.901 
11580000      57.9891    299.92003   -1813062.8   -1813062.8   -1796398.7    38.134923    6029970.1    101.96264    101.88354      580.457    11190.963 
11590000      58.9891    299.85613   -1813039.7   -1813039.7   -1796379.2    140.26392    6030095.9    101.96511     101.8832      580.457    10924.382 
11600000      59.9891    299.73595   -1813041.5   -1813041.5   -1796387.7    193.70012    6029734.7     101.9559     101.8863      580.457    10658.087 
11610000      60.9891    299.90502   -1813025.6   -1813025.6   -1796362.4   -59.808182    6031163.2    101.97037    101.89597      580.457    10391.626 
11620000      61.9891    299.85327   -1813054.4   -1813054.4   -1796394.1   -5.5363337    6030544.9    101.97078    101.88512      580.457      10125.4 
11630000      62.9891    299.96746   -1813027.7   -1813027.7   -1796361.1   -35.309098      6029278    101.96348    101.87101      580.457    9858.9443 
11640000      63.9891    300.08383   -1813029.8   -1813029.8   -1796356.7    87.577065    6029777.4    101.96829    101.87464      580.457    9592.5399 
11650000      64.9891    299.93441   -1813031.3   -1813031.3   -1796366.5    169.53172    6029639.8    101.95444    101.88615      580.457    9326.0036 
11660000      65.9891    299.83833   -1813065.5   -1813065.5     -1796406   -221.43758    6029929.6    101.96534    101.88016      580.457     9059.413 
11670000      66.9891    300.06621   -1813021.8   -1813021.8   -1796349.6    50.285811    6029372.8    101.96324    101.87285      580.457     8793.144 
11680000      67.9891    299.89692   -1813018.2   -1813018.2   -1796355.5    32.682805    6028863.8    101.95475    101.87273      580.457    8526.7657 
11690000      68.9891    299.66722   -1813038.2   -1813038.2   -1796388.2   -223.32709    6029526.3    101.95507    101.88361      580.457    8260.3712 
11700000      69.9891    300.14014   -1813039.5   -1813039.5   -1796363.2   -138.86242    6028793.5    101.95623    101.87007      580.457    7993.8651 
11710000      70.9891    300.15001   -1813041.5   -1813041.5   -1796364.7   -17.634005    6028109.9    101.94187    101.87286      580.457    7727.4438 
11720000      71.9891    299.99021   -1813046.3   -1813046.3   -1796378.4   -1.6442708    6028821.6    101.94911    101.87766      580.457    7460.9602 
11730000      72.9891     299.6932   -1813080.7   -1813080.7   -1796429.2   -145.86643    6028989.8    101.95578    101.87383      580.457     7194.495 
11740000      73.9891    299.91877     -1813020     -1813020     -1796356    132.01459      6029341    101.95775    101.87779      580.457    6928.0966 
11750000      74.9891    299.88234   -1813032.7   -1813032.7   -1796370.7   -45.751825    6028701.5    101.95316    101.87158      580.457    6661.7149 
11760000      75.9891    300.17526   -1813025.1   -1813025.1   -1796346.9    47.600021    6029051.9    101.95589    101.87477      580.457    6395.2683 
11770000      76.9891     300.1337   -1813045.1   -1813045.1   -1796369.2   -74.466608    6029119.3    101.95915    101.87265      580.457    6128.8977 
11780000      77.9891     300.0184   -1813022.4   -1813022.4   -1796352.9    -94.69918      6029128    101.95119    101.88076      580.457    5862.4208 
11790000      78.9891    299.68322   -1813065.7   -1813065.7   -1796414.8    223.66005    6029007.7    101.95344    101.87647      580.457    5595.9088 
11800000      79.9891    299.96187   -1813058.5   -1813058.5   -1796392.1    44.707421    6029046.7     101.9614    101.86918      580.457    5329.5162 
11810000      80.9891    300.05674   -1813009.5   -1813009.5   -1796337.9    98.080039    6029116.5    101.95819    101.87357      580.457    5063.1462 
11820000      81.9891    300.12857     -1813023     -1813023   -1796347.4    38.467392    6029608.5    101.96646    101.87362      580.457    4796.7783 
11830000      82.9891    300.07344   -1813056.7   -1813056.7   -1796384.2   -113.79467    6029819.9    101.96367    101.87997      580.457     4530.501 
11840000      83.9891    300.06478   -1813007.8   -1813007.8   -1796335.8    73.259604      6029612    101.95427    101.88586      580.457    4264.2231 
11850000      84.9891     300.0278   -1813036.4   -1813036.4   -1796366.4   -54.515609    6029903.1    101.97187    101.87319      580.457    3997.9961 
11860000      85.9891    299.87934   -1813036.4   -1813036.4   -1796374.7   -26.462236    6029425.5    101.95937    101.87761      580.457    3731.6936 
11870000      86.9891    299.95054   -1813032.3   -1813032.3   -1796366.6    84.999182    6029790.2     101.9602    101.88295      580.457    3465.2876 
11880000      87.9891     300.0414   -1813037.8   -1813037.8     -1796367    242.68158    6029048.7    101.94922    101.88138      580.457    3198.9289 
11890000      88.9891    300.32014   -1813009.3   -1813009.3     -1796323     -108.058    6030874.2    101.97364    101.88783      580.457    2932.6522 
11900000      89.9891    299.83945   -1813001.3   -1813001.3   -1796341.7   -94.905033    6029839.2    101.96971    101.87427      580.457     2666.308 
11910000      90.9891    300.13924   -1813029.9   -1813029.9   -1796353.7    13.732895    6029660.1    101.96907    101.87188      580.457    2399.9432 
11920000      91.9891    299.90514   -1813046.3   -1813046.3   -1796383.1   -143.10795    6029415.7    101.95728    101.87953      580.457    2133.5503 
11930000      92.9891    299.93952   -1813058.4   -1813058.4   -1796393.3   -67.543707    6029091.2    101.96372    101.86762      580.457    1867.1981 
11940000      93.9891     299.9438   -1813030.2   -1813030.2   -1796364.9    235.50147    6029009.8    101.95157    101.87838      580.457    1600.8955 
11950000      94.9891    299.72422   -1813077.1   -1813077.1   -1796423.9   -112.90472    6029221.3    101.95762     101.8759      580.457    1334.5697 
11960000      95.9891    299.82102   -1813026.2   -1813026.2   -1796367.6    22.987072    6029250.3     101.9543    101.87971      580.457    1068.2036 
11970000      96.9891    300.12576   -1813035.4   -1813035.4     -1796360    61.468726    6028898.2    101.95618    101.87188      580.457    801.87109 
11980000      97.9891    299.74641   -1813042.7   -1813042.7   -1796388.4   -109.69018    6029189.7    101.94356    101.88942      580.457    535.54724 
11990000      98.9891    300.10866   -1813054.3   -1813054.3   -1796379.8   -167.87916    6028982.5    101.94409    101.88539      580.457    269.22863 
12000000      99.9891    300.12464   -1813055.9   -1813055.9   -1796380.5    51.938057    6029034.5    101.95422    101.87614      580.457    2.9029434 
12000109          100    299.97844   -1813064.4   -1813064.4   -1796397.1   -140.63281    6028808.5    101.94707    101.87947      580.457            0 
Loop time of 26632.5 on 96 procs for 1000000 steps with 429844 atoms

Performance: 0.324 ns/day, 73.979 hours/ns, 37.548 timesteps/s
100.0% CPU use with 96 MPI tasks x 1 OpenMP threads

MPI task timing breakdown:
Section |  min time  |  avg time  |  max time  |%varavg| %total
---------------------------------------------------------------
Pair    | 6063.6     | 18783      | 25634      |3800.2 | 70.53
Neigh   | 0.4264     | 24.645     | 36.225     | 211.9 |  0.09
Comm    | 405.49     | 5225.1     | 19831      |7831.2 | 19.62
Output  | 1.8927     | 1.894      | 1.9105     |   0.1 |  0.01
Modify  | 495.78     | 2522.2     | 4399.3     |2239.4 |  9.47
Other   |            | 75.96      |            |       |  0.29

Nlocal:        4477.54 ave        5977 max         151 min
Histogram: 12 0 0 0 0 0 12 24 21 27
Nghost:        8369.15 ave       10560 max        2964 min
Histogram: 12 0 0 0 0 11 1 22 32 18
Neighs:         0.00000 ave           0 max           0 min
Histogram: 96 0 0 0 0 0 0 0 0 0
FullNghs:      858583.0 ave 1.27504e+06 max        8041 min
Histogram: 12 0 0 0 5 7 24 12 12 24

Total # of neighbors = 82423968
Ave neighs/atom = 191.75321
Neighbor list builds = 1061
Dangerous builds = 0
System init for write_restart ...
System init for write_data ...
Total wall time: 7:23:53
