LAMMPS (24 Mar 2022)
OMP_NUM_THREADS environment is not set. Defaulting to 1 thread. (src/comm.cpp:98)
  using 1 OpenMP thread(s) per MPI task
package gpu 0
################################################################################
# LAMMPS input file                                                            #
#                                                                              #
# Attempted recreation of approximate setup of Zhao, et al.                    #
# Using nial09 eam, impactor at uP = 3 km/s                                    #
#                                                                              #
# richard terrett, 2018                                                        #
#                                                                              #
################################################################################

# variables

variable al_fcc_a equal 4.064
variable ni_fcc_a equal 3.528
variable v_up     equal 30
variable    box_x equal 514.00
variable   box_yz equal 100
variable  half_yz equal ${box_yz}/2
variable  half_yz equal 100/2
variable void_radius equal 20

# simulation construction

units      metal
dimension  3
boundary   p p p
atom_style atomic
timestep   0.001

# lattice construction

region       simulation_box block 0.00   ${box_x} 0.00 ${box_yz} 0.00 ${box_yz}
region       simulation_box block 0.00   514 0.00 ${box_yz} 0.00 ${box_yz}
region       simulation_box block 0.00   514 0.00 100 0.00 ${box_yz}
region       simulation_box block 0.00   514 0.00 100 0.00 100
create_box 2 simulation_box
Created orthogonal box = (0 0 0) to (514 100 100)
  6 by 1 by 1 MPI processor grid
region       al_a    block          0.00  14.00 0.00 ${box_yz} 0.00 ${box_yz}
region       al_a    block          0.00  14.00 0.00 100 0.00 ${box_yz}
region       al_a    block          0.00  14.00 0.00 100 0.00 100
region       ni_a    block         14.00  70.00 0.00 ${box_yz} 0.00 ${box_yz}
region       ni_a    block         14.00  70.00 0.00 100 0.00 ${box_yz}
region       ni_a    block         14.00  70.00 0.00 100 0.00 100
region       al_b    block         70.00  98.00 0.00 ${box_yz} 0.00 ${box_yz}
region       al_b    block         70.00  98.00 0.00 100 0.00 ${box_yz}
region       al_b    block         70.00  98.00 0.00 100 0.00 100
region       ni_b    block         98.00 154.00 0.00 ${box_yz} 0.00 ${box_yz}
region       ni_b    block         98.00 154.00 0.00 100 0.00 ${box_yz}
region       ni_b    block         98.00 154.00 0.00 100 0.00 100
region       al_c    block        154.00 182.00 0.00 ${box_yz} 0.00 ${box_yz}
region       al_c    block        154.00 182.00 0.00 100 0.00 ${box_yz}
region       al_c    block        154.00 182.00 0.00 100 0.00 100
region       ni_c    block        182.00 238.00 0.00 ${box_yz} 0.00 ${box_yz}
region       ni_c    block        182.00 238.00 0.00 100 0.00 ${box_yz}
region       ni_c    block        182.00 238.00 0.00 100 0.00 100
region       al_d    block        238.00 252.00 0.00 ${box_yz} 0.00 ${box_yz}
region       al_d    block        238.00 252.00 0.00 100 0.00 ${box_yz}
region       al_d    block        238.00 252.00 0.00 100 0.00 100
region       void    block        252.00 262.00 0.00 ${box_yz} 0.00 ${box_yz}
region       void    block        252.00 262.00 0.00 100 0.00 ${box_yz}
region       void    block        252.00 262.00 0.00 100 0.00 100
region       al_w    block        262.00 276.00 0.00 ${box_yz} 0.00 ${box_yz}
region       al_w    block        262.00 276.00 0.00 100 0.00 ${box_yz}
region       al_w    block        262.00 276.00 0.00 100 0.00 100
region       ni_w    block        276.00 332.00 0.00 ${box_yz} 0.00 ${box_yz}
region       ni_w    block        276.00 332.00 0.00 100 0.00 ${box_yz}
region       ni_w    block        276.00 332.00 0.00 100 0.00 100
region       al_x    block        332.00 360.00 0.00 ${box_yz} 0.00 ${box_yz}
region       al_x    block        332.00 360.00 0.00 100 0.00 ${box_yz}
region       al_x    block        332.00 360.00 0.00 100 0.00 100
region       ni_x    block        360.00 416.00 0.00 ${box_yz} 0.00 ${box_yz}
region       ni_x    block        360.00 416.00 0.00 100 0.00 ${box_yz}
region       ni_x    block        360.00 416.00 0.00 100 0.00 100
region       al_y    block        416.00 444.00 0.00 ${box_yz} 0.00 ${box_yz}
region       al_y    block        416.00 444.00 0.00 100 0.00 ${box_yz}
region       al_y    block        416.00 444.00 0.00 100 0.00 100
region       ni_y    block        444.00 500.00 0.00 ${box_yz} 0.00 ${box_yz}
region       ni_y    block        444.00 500.00 0.00 100 0.00 ${box_yz}
region       ni_y    block        444.00 500.00 0.00 100 0.00 100
region       al_z    block        500.00 514.00 0.00 ${box_yz} 0.00 ${box_yz}
region       al_z    block        500.00 514.00 0.00 100 0.00 ${box_yz}
region       al_z    block        500.00 514.00 0.00 100 0.00 100
region    chomp_b   sphere          84.0       ${half_yz}      ${half_yz}  ${void_radius}
region    chomp_b   sphere          84.0       50      ${half_yz}  ${void_radius}
region    chomp_b   sphere          84.0       50      50  ${void_radius}
region    chomp_b   sphere          84.0       50      50  20
region    chomp_c   sphere         168.0       ${half_yz}      ${half_yz}  ${void_radius}
region    chomp_c   sphere         168.0       50      ${half_yz}  ${void_radius}
region    chomp_c   sphere         168.0       50      50  ${void_radius}
region    chomp_c   sphere         168.0       50      50  20
region    chomp_x   sphere         346.0       ${half_yz}      ${half_yz}  ${void_radius}
region    chomp_x   sphere         346.0       50      ${half_yz}  ${void_radius}
region    chomp_x   sphere         346.0       50      50  ${void_radius}
region    chomp_x   sphere         346.0       50      50  20
region    chomp_y   sphere         430.0       ${half_yz}      ${half_yz}  ${void_radius}
region    chomp_y   sphere         430.0       50      ${half_yz}  ${void_radius}
region    chomp_y   sphere         430.0       50      50  ${void_radius}
region    chomp_y   sphere         430.0       50      50  20
region       left    block           0.0 257.00 0.0 200 0.0 200
region      right    block         257.0 514.00 0.0 200 0.0 200

lattice      fcc ${ni_fcc_a} orient x 1 1 1 orient y 1 -1 0 orient z 1 1 -2
lattice      fcc 3.528 orient x 1 1 1 orient y 1 -1 0 orient z 1 1 -2
Lattice spacing in x,y,z = 6.1106752 4.9893454 5.7611999
create_atoms 1 region ni_a
Created 52400 atoms
  using lattice units in orthogonal box = (0 0 0) to (514 100 100)
  create_atoms CPU = 0.018 seconds
create_atoms 1 region ni_b
Created 50582 atoms
  using lattice units in orthogonal box = (0 0 0) to (514 100 100)
  create_atoms CPU = 0.019 seconds
create_atoms 1 region ni_c
Created 50623 atoms
  using lattice units in orthogonal box = (0 0 0) to (514 100 100)
  create_atoms CPU = 0.019 seconds
create_atoms 1 region ni_w
Created 50572 atoms
  using lattice units in orthogonal box = (0 0 0) to (514 100 100)
  create_atoms CPU = 0.013 seconds
create_atoms 1 region ni_x
Created 52486 atoms
  using lattice units in orthogonal box = (0 0 0) to (514 100 100)
  create_atoms CPU = 0.012 seconds
create_atoms 1 region ni_y
Created 52375 atoms
  using lattice units in orthogonal box = (0 0 0) to (514 100 100)
  create_atoms CPU = 0.012 seconds
lattice      fcc ${al_fcc_a} orient x 1 1 1 orient y 1 -1 0 orient z 1 1 -2
lattice      fcc 4.064 orient x 1 1 1 orient y 1 -1 0 orient z 1 1 -2
Lattice spacing in x,y,z = 7.0390545 5.7473639 6.6364842
create_atoms 2 region al_a
Created 8102 atoms
  using lattice units in orthogonal box = (0 0 0) to (514 100 100)
  create_atoms CPU = 0.006 seconds
create_atoms 2 region al_b
Created 16926 atoms
  using lattice units in orthogonal box = (0 0 0) to (514 100 100)
  create_atoms CPU = 0.008 seconds
create_atoms 2 region al_c
Created 16910 atoms
  using lattice units in orthogonal box = (0 0 0) to (514 100 100)
  create_atoms CPU = 0.010 seconds
create_atoms 2 region al_d
Created 8463 atoms
  using lattice units in orthogonal box = (0 0 0) to (514 100 100)
  create_atoms CPU = 0.010 seconds
create_atoms 2 region al_w
Created 8416 atoms
  using lattice units in orthogonal box = (0 0 0) to (514 100 100)
  create_atoms CPU = 0.005 seconds
create_atoms 2 region al_x
Created 16912 atoms
  using lattice units in orthogonal box = (0 0 0) to (514 100 100)
  create_atoms CPU = 0.007 seconds
create_atoms 2 region al_y
Created 16901 atoms
  using lattice units in orthogonal box = (0 0 0) to (514 100 100)
  create_atoms CPU = 0.007 seconds
create_atoms 2 region al_z
Created 8461 atoms
  using lattice units in orthogonal box = (0 0 0) to (514 100 100)
  create_atoms CPU = 0.006 seconds

# pair potential

pair_style eam/alloy
pair_coeff * * Mishin-Ni-Al-2009.eam.alloy Ni Al

# reporting

thermo 100
dump 1 all atom 1000  thermalise.lammpstrj

# dynamics initialisation

#delete_atoms region chomp_b compress no
#delete_atoms region chomp_c compress no
#delete_atoms region chomp_x compress no
#delete_atoms region chomp_y compress no
delete_atoms overlap 2 all all
System init for delete_atoms ...
Neighbor list info ...
  update every 1 steps, delay 10 steps, check yes
  max neighbors/atom: 2000, page size: 100000
  master list distance cutoff = 8.28721
  ghost atom cutoff = 8.28721
  binsize = 4.143605, bins = 125 25 25
  1 neighbor lists, perpetual/occasional/extra = 0 1 0
  (1) command delete_atoms, occasional
      attributes: full, newton off
      pair build: full/bin/atomonly
      stencil: full/bin/3d
      bin: standard
Deleted 12135 atoms, new total = 397994
velocity all create 300 1 mom yes rot no



# Thermalisation
fix   1 all npt temp 300 300 100 iso 0.0 0.0 100 drag 0.0
run   30000

CITE-CITE-CITE-CITE-CITE-CITE-CITE-CITE-CITE-CITE-CITE-CITE-CITE

Your simulation uses code contributions which should be cited:

- GPU package (short-range, long-range and three-body potentials):

@Article{Brown11,
 author = {W. M. Brown, P. Wang, S. J. Plimpton, A. N. Tharrington},
 title = {Implementing Molecular Dynamics on Hybrid High Performance Computers - Short Range Forces},
 journal = {Comp.~Phys.~Comm.},
 year =    2011,
 volume =  182,
 pages =   {898--911}
}

@Article{Brown12,
 author = {W. M. Brown, A. Kohlmeyer, S. J. Plimpton, A. N. Tharrington},
 title = {Implementing Molecular Dynamics on Hybrid High Performance Computers - Particle-Particle Particle-Mesh},
 journal = {Comp.~Phys.~Comm.},
 year =    2012,
 volume =  183,
 pages =   {449--459}
}

@Article{Brown13,
 author = {W. M. Brown, Y. Masako},
 title = {Implementing Molecular Dynamics on Hybrid High Performance Computers – Three-Body Potentials},
 journal = {Comp.~Phys.~Comm.},
 year =    2013,
 volume =  184,
 pages =   {2785--2793}
}

@Article{Trung15,
 author = {T. D. Nguyen, S. J. Plimpton},
 title = {Accelerating dissipative particle dynamics simulations for soft matter systems},
 journal = {Comput.~Mater.~Sci.},
 year =    2015,
 volume =  100,
 pages =   {173--180}
}

@Article{Trung17,
 author = {T. D. Nguyen},
 title = {GPU-accelerated Tersoff potentials for massively parallel Molecular Dynamics simulations},
 journal = {Comp.~Phys.~Comm.},
 year =    2017,
 volume =  212,
 pages =   {113--122}
}

@Article{Nikolskiy19,
 author = {V. Nikolskiy, V. Stegailov},
 title = {GPU acceleration of four-site water models in LAMMPS},
 journal = {Proceeding of the International Conference on Parallel Computing (ParCo 2019), Prague, Czech Republic},
 year =    2019
}

CITE-CITE-CITE-CITE-CITE-CITE-CITE-CITE-CITE-CITE-CITE-CITE-CITE

Neighbor list info ...
  update every 1 steps, delay 10 steps, check yes
  max neighbors/atom: 2000, page size: 100000
  master list distance cutoff = 8.28721
  ghost atom cutoff = 8.28721
  binsize = 4.143605, bins = 125 25 25
  0 neighbor lists, perpetual/occasional/extra = 0 0 0
Per MPI rank memory allocation (min/avg/max) = 26.66 | 26.82 | 26.96 Mbytes
   Step          Temp          E_pair         E_mol          TotEng         Press          Volume    
         0   300           -1651034.5      0             -1635601.1     -15252.243      5140000      
       100   298.31119     -1650946.8      0             -1635600.3     -22845.371      5139957.7    
       200   288.48689     -1650443.2      0             -1635602.1     -23312.12       5139809.1    
       300   295.61871     -1650814.3      0             -1635606.3     -21284.721      5139548.5    
       400   303.00149     -1651199        0             -1635611.2     -20540.401      5139184.9    
       500   301.6149      -1651133.5      0             -1635617.1     -20692.993      5138723.6    
       600   304.87132     -1651308.4      0             -1635624.4     -22224.561      5138163.7    
       700   303.12032     -1651227.6      0             -1635633.7     -23413.524      5137500.5    
       800   296.69548     -1650908.4      0             -1635645       -23804.792      5136730.3    
       900   296.4587      -1650909.2      0             -1635658       -23779.744      5135853.8    
      1000   295.27041     -1650862.3      0             -1635672.2     -22689.742      5134875.9    
      1100   299.52401     -1651095.3      0             -1635686.4     -20178.027      5133808.6    
      1200   304.41215     -1651361.1      0             -1635700.8     -20044.214      5132669.2    
      1300   301.88255     -1651245.6      0             -1635715.3     -19616.013      5131470.1    
      1400   303.48273     -1651343.6      0             -1635731       -20430.039      5130222      
      1500   303.20459     -1651345.6      0             -1635747.3     -20139.44       5128933.7    
      1600   306.52431     -1651532.5      0             -1635763.5     -18981.323      5127618.7    
      1700   302.32002     -1651331.4      0             -1635778.7     -17731.864      5126293.8    
      1800   304.67408     -1651466.4      0             -1635792.6     -16300.199      5124976.2    
      1900   304.69066     -1651480.2      0             -1635805.5     -16032.338      5123680.7    
      2000   305.2137      -1651520.1      0             -1635818.5     -16732.971      5122415      
      2100   308.656       -1651710.3      0             -1635831.7     -17059.998      5121180.6    
      2200   306.50794     -1651612.4      0             -1635844.3     -16561.33       5119978.7    
      2300   311.26311     -1651869        0             -1635856.2     -16305.128      5118811.7    
      2400   310.94829     -1651864.1      0             -1635867.4     -15340.918      5117679.9    
      2500   310.875       -1651870.3      0             -1635877.5     -14220.268      5116584.5    
      2600   309.89866     -1651829.4      0             -1635886.8     -14003.496      5115525.5    
      2700   309.95826     -1651841.4      0             -1635895.7     -13668.645      5114498.8    
      2800   313.76737     -1652045.7      0             -1635904.1     -13151.904      5113500.5    
      2900   313.66515     -1652048.2      0             -1635911.8     -12243.813      5112527.3    
      3000   311.36326     -1651936.5      0             -1635918.5     -10349.49       5111578.4    
      3100   316.35395     -1652198.9      0             -1635924.2     -9156.0207      5110656.1    
      3200   315.9111      -1652180.9      0             -1635928.9     -7888.3136      5109761.2    
      3300   316.75261     -1652228.2      0             -1635933       -7169.4341      5108894.2    
      3400   314.13692     -1652097.3      0             -1635936.6     -6637.737       5108053.9    
      3500   316.56496     -1652225.5      0             -1635940       -6378.2509      5107238.5    
      3600   320.53282     -1652432.7      0             -1635943       -5817.0207      5106445.9    
      3700   318.28245     -1652319.7      0             -1635945.8     -5728.4169      5105675.2    
      3800   320.41394     -1652432        0             -1635948.4     -5538.9579      5104924.3    
      3900   320.14679     -1652420.9      0             -1635951       -5812.6332      5104191.5    
      4000   321.83713     -1652510.5      0             -1635953.7     -5951.3534      5103473.7    
      4100   321.83683     -1652513.1      0             -1635956.3     -5548.2447      5102768.9    
      4200   319.72233     -1652406.6      0             -1635958.6     -5036.9259      5102077.6    
      4300   320.71769     -1652459.9      0             -1635960.7     -4501.5209      5101400.8    
      4400   318.95131     -1652370.7      0             -1635962.3     -3418.2889      5100740.3    
      4500   322.84706     -1652572.3      0             -1635963.5     -2304.4745      5100099.7    
      4600   322.86307     -1652573.7      0             -1635964.2     -554.49807      5099483.1    
      4700   322.81392     -1652571.1      0             -1635964        1471.4152      5098896.9    
      4800   323.3229      -1652596.6      0             -1635963.4      2736.8762      5098348.3    
      4900   321.4119      -1652497.3      0             -1635962.3      4039.8192      5097841.4    
      5000   321.19518     -1652484.9      0             -1635961.1      4412.7694      5097379.2    
      5100   320.19071     -1652432.1      0             -1635960        4690.4532      5096961.2    
      5200   321.33198     -1652489.8      0             -1635959        4544.5449      5096586      
      5300   321.88929     -1652517.5      0             -1635958.1      5015.8452      5096250.9    
      5400   321.02427     -1652472.1      0             -1635957.2      5430.3273      5095955.5    
      5500   321.56387     -1652499.1      0             -1635956.4      5287.6453      5095699.4    
      5600   321.09315     -1652474.3      0             -1635955.7      4461.0073      5095479.5    
      5700   321.70204     -1652505.2      0             -1635955.3      3949.9141      5095290.8    
      5800   318.91918     -1652361.7      0             -1635955        3947.3384      5095129.1    
      5900   320.40819     -1652438        0             -1635954.7      4864.1342      5094993.6    
      6000   320.27946     -1652431.1      0             -1635954.4      6271.7713      5094886.7    
      6100   319.86469     -1652409.5      0             -1635954.2      7802.1227      5094813.7    
      6200   321.10407     -1652473.2      0             -1635954.1      8950.1483      5094779.8    
      6300   320.75975     -1652455.6      0             -1635954.2      9440.8958      5094788.4    
      6400   319.06621     -1652368.9      0             -1635954.6      9668.6449      5094840.2    
      6500   318.91713     -1652361.9      0             -1635955.3      10069.424      5094934.7    
      6600   317.76352     -1652303.5      0             -1635956.3      10698.301      5095072.1    
      6700   319.24901     -1652381.2      0             -1635957.6      11067.453      5095253.3    
      6800   318.17128     -1652327.5      0             -1635959.3      11099.579      5095478.4    
      6900   317.32174     -1652285.7      0             -1635961.2      11102.674      5095745.9    
      7000   316.53527     -1652247.5      0             -1635963.5      11191.758      5096054.2    
      7100   317.47128     -1652298.2      0             -1635966        11086.181      5096402.2    
      7200   315.55743     -1652202.5      0             -1635968.7      11131.315      5096787.8    
      7300   314.7521      -1652164.1      0             -1635971.8      11162.594      5097209.5    
      7400   316.19282     -1652241.5      0             -1635975.1      11218.406      5097665.9    
      7500   313.84568     -1652124.3      0             -1635978.6      11333.833      5098155.5    
      7600   315.74635     -1652225.9      0             -1635982.4      11800.037      5098677.4    
      7700   314.93363     -1652188.4      0             -1635986.8      12638.71       5099231.8    
      7800   313.11977     -1652100.1      0             -1635991.7      13826.627      5099820.8    
      7900   313.68325     -1652134.7      0             -1635997.4      14300.469      5100447      
      8000   314.11018     -1652162.6      0             -1636003.3      14005.2        5101110.3    
      8100   313.99429     -1652162.8      0             -1636009.5      13613.849      5101806.6    
      8200   314.15011     -1652177        0             -1636015.6      13107.192      5102531.3    
      8300   315.07396     -1652230.6      0             -1636021.7      12511.914      5103279.4    
      8400   315.19181     -1652242.7      0             -1636027.7      12103.987      5104045.4    
      8500   314.1215      -1652193.5      0             -1636033.7      11881.97       5104824.9    
      8600   312.93501     -1652138.4      0             -1636039.6      11654.943      5105614.4    
      8700   313.16884     -1652156.3      0             -1636045.4      11254.246      5106410.4    
      8800   313.43485     -1652175.6      0             -1636051.1      11220.879      5107209.4    
      8900   313.12404     -1652165.4      0             -1636056.9      11499.277      5108009.4    
      9000   314.02865     -1652217.9      0             -1636062.8      11930.788      5108810      
      9100   313.2566      -1652184.5      0             -1636069.1      12532.358      5109612      
      9200   313.30263     -1652193.4      0             -1636075.6      12846.032      5110416.3    
      9300   313.161       -1652192.7      0             -1636082.3      13145.221      5111223.2    
      9400   313.7228      -1652228.5      0             -1636089.1      13182.15       5112032.7    
      9500   315.1225      -1652307.1      0             -1636095.8      12463.131      5112843.4    
      9600   313.30971     -1652220        0             -1636101.9      11301.033      5113651.4    
      9700   312.89393     -1652204        0             -1636107.3      9936.6532      5114450.5    
      9800   313.64747     -1652247.5      0             -1636112        8698.07        5115234.6    
      9900   314.62334     -1652301.7      0             -1636116        7723.3066      5115998.8    
     10000   315.19371     -1652334.6      0             -1636119.6      7112.1962      5116739.9    
     10100   314.6484      -1652309.8      0             -1636122.8      6827.0856      5117456.7    
     10200   314.26605     -1652293.2      0             -1636125.8      6452.093       5118149.8    
     10300   314.47333     -1652306.5      0             -1636128.5      5818.2162      5118819.3    
     10400   316.64702     -1652420.7      0             -1636130.9      5024.5179      5119464.3    
     10500   316.8541      -1652433.3      0             -1636132.9      4737.4819      5120083.9    
     10600   316.74706     -1652429.8      0             -1636134.8      4947.3899      5120679.1    
     10700   317.07266     -1652448.5      0             -1636136.8      5313.3948      5121253.1    
     10800   316.97749     -1652445.6      0             -1636138.8      5546           5121809.5    
     10900   316.6527      -1652430.9      0             -1636140.9      5321.0363      5122351.1    
     11000   316.65398     -1652432.8      0             -1636142.7      4638.347       5122878.5    
     11100   317.50606     -1652478.1      0             -1636144.1      3620.0553      5123389.9    
     11200   317.46333     -1652477.1      0             -1636145.3      2958.7496      5123882.7    
     11300   318.31539     -1652521.9      0             -1636146.2      2353.7979      5124355.4    
     11400   316.46803     -1652427.6      0             -1636147        1864.3966      5124807.2    
     11500   317.12134     -1652461.7      0             -1636147.5      747.08948      5125237.2    
     11600   318.13553     -1652514.1      0             -1636147.7     -565.37812      5125642.5    
     11700   317.59075     -1652485.9      0             -1636147.6     -1719.4259      5126019      
     11800   316.2555      -1652416.9      0             -1636147.3     -2533.1508      5126363.8    
     11900   316.92984     -1652451.3      0             -1636146.9     -3033.2529      5126675.5    
     12000   316.45929     -1652426.7      0             -1636146.5     -3069.5311      5126954.2    
     12100   317.17231     -1652463.1      0             -1636146.3     -2907.8313      5127201.9    
     12200   316.82273     -1652444.9      0             -1636146       -2766.642       5127421.5    
     12300   316.80912     -1652444        0             -1636145.9     -3057.1111      5127615.3    
     12400   316.90709     -1652448.9      0             -1636145.7     -3718.4251      5127783.8    
     12500   317.12438     -1652459.9      0             -1636145.5     -4202.493       5127925.5    
     12600   317.11113     -1652459        0             -1636145.4     -4533.2434      5128040      
     12700   317.56393     -1652482.3      0             -1636145.3     -4971.0451      5128127.2    
     12800   317.86921     -1652498        0             -1636145.3     -5460.8367      5128186.6    
     12900   316.25921     -1652415.2      0             -1636145.4     -5931.4659      5128217.4    
     13000   317.11345     -1652459.3      0             -1636145.6     -6566.3139      5128218.9    
     13100   316.11788     -1652408.4      0             -1636145.9     -7010.4123      5128189.8    
     13200   315.09872     -1652356.4      0             -1636146.3     -7317.7666      5128129.5    
     13300   316.45759     -1652427        0             -1636146.9     -7479.0199      5128038      
     13400   316.30234     -1652419.8      0             -1636147.7     -7536.741       5127916      
     13500   315.75168     -1652392.3      0             -1636148.6     -7493.3586      5127764.7    
     13600   315.00697     -1652355        0             -1636149.6     -7584.2748      5127585.4    
     13700   314.60907     -1652335.8      0             -1636150.8     -8047.3318      5127378.7    
     13800   314.2345      -1652317.9      0             -1636152.2     -8603.7072      5127143.9    
     13900   314.34197     -1652325.1      0             -1636153.9     -9214.6724      5126879.6    
     14000   312.46468     -1652230.5      0             -1636155.8     -9584.747       5126584.3    
     14100   311.82443     -1652199.7      0             -1636158       -9788.8102      5126257.8    
     14200   313.05003     -1652265.2      0             -1636160.4     -10220.571      5125900.1    
     14300   312.37483     -1652233.2      0             -1636163.2     -10591.816      5125511      
     14400   311.94613     -1652214.1      0             -1636166.2     -10999.174      5125090.3    
     14500   311.87621     -1652213.9      0             -1636169.6     -11609.222      5124637.4    
     14600   311.45851     -1652196.3      0             -1636173.4     -12085.4        5124151.4    
     14700   310.68522     -1652160.7      0             -1636177.6     -12335.056      5123632.1    
     14800   311.53704     -1652208.9      0             -1636182       -12225.849      5123080.2    
     14900   310.71254     -1652171        0             -1636186.6     -11613.69       5122498.5    
     15000   310.95977     -1652188.3      0             -1636191       -10961.741      5121891.8    
     15100   311.41788     -1652216.2      0             -1636195.4     -10513.4        5121265      
     15200   310.12421     -1652154.1      0             -1636199.8     -10439.492      5120622      
     15300   308.95794     -1652098.6      0             -1636204.3     -10609.044      5119964.9    
     15400   309.83056     -1652148.2      0             -1636209.1     -10905.371      5119294.6    
     15500   309.25038     -1652123.2      0             -1636213.9     -10995.775      5118611.8    
     15600   309.8366      -1652158.4      0             -1636218.9     -11058.108      5117917.5    
     15700   309.28724     -1652135.2      0             -1636224       -11119.237      5117213.4    
     15800   309.04682     -1652128        0             -1636229.2     -11499.653      5116500.5    
     15900   309.15062     -1652138.9      0             -1636234.8     -12221.319      5115778.8    
     16000   308.19511     -1652095.7      0             -1636240.8     -13111.466      5115046.7    
     16100   308.21526     -1652103.3      0             -1636247.3     -13948.483      5114301.9    
     16200   306.41273     -1652017.5      0             -1636254.2     -14341.053      5113542.7    
     16300   306.77681     -1652043.3      0             -1636261.3     -14239.563      5112769.4    
     16400   305.92807     -1652006.8      0             -1636268.4     -13893.552      5111984.6    
     16500   306.02968     -1652019        0             -1636275.4     -13389.797      5111191.9    
     16600   306.73677     -1652062.1      0             -1636282.1     -12911.61       5110395.2    
     16700   307.36025     -1652100.7      0             -1636288.7     -12506.225      5109598.2    
     16800   306.83484     -1652079.9      0             -1636294.9     -11946.219      5108804      
     16900   306.41295     -1652064.2      0             -1636300.9     -11239.84       5108015.7    
     17000   306.25797     -1652061.7      0             -1636306.4     -10631.588      5107236.9    
     17100   306.32621     -1652070.4      0             -1636311.6     -10216.443      5106470.2    
     17200   306.44564     -1652081.5      0             -1636316.6     -10125.328      5105717.1    
     17300   306.29838     -1652078.9      0             -1636321.5     -10395.713      5104977.2    
     17400   306.26536     -1652082.3      0             -1636326.5     -10988.106      5104248.6    
     17500   306.75373     -1652112.7      0             -1636331.9     -11648.635      5103528      
     17600   306.84409     -1652122.9      0             -1636337.4     -12140.878      5102811.8    
     17700   307.28851     -1652151.4      0             -1636343.1     -12382.813      5102097.7    
     17800   306.7664      -1652130.3      0             -1636348.8     -12461.064      5101384.2    
     17900   306.61103     -1652128.1      0             -1636354.6     -12456.847      5100671      
     18000   306.48078     -1652127.1      0             -1636360.3     -12403.692      5099958.1    
     18100   307.17861     -1652168.7      0             -1636366       -12242.739      5099245.7    
     18200   307.10877     -1652170.7      0             -1636371.6     -11896.673      5098534.5    
     18300   306.8349      -1652162        0             -1636376.9     -11270.345      5097826      
     18400   307.06429     -1652178.7      0             -1636381.9     -10386.904      5097122.8    
     18500   307.28933     -1652194.8      0             -1636386.4     -9468.2457      5096428.5    
     18600   307.19273     -1652193.9      0             -1636390.5     -8766.3204      5095746.2    
     18700   307.17602     -1652196.8      0             -1636394.3     -8277.4201      5095078.1    
     18800   307.60959     -1652222.7      0             -1636397.8     -8044.7053      5094425.2    
     18900   307.78785     -1652235.2      0             -1636401.2     -7896.8374      5093787      
     19000   308.52444     -1652276.4      0             -1636404.4     -7799.3284      5093162.9    
     19100   309.46302     -1652327.8      0             -1636407.6     -7692.7759      5092551.9    
     19200   309.33807     -1652324.5      0             -1636410.7     -7524.038       5091953.3    
     19300   308.84372     -1652302        0             -1636413.6     -7539.4872      5091366.4    
     19400   308.57704     -1652291.2      0             -1636416.6     -7588.4693      5090790      
     19500   309.28568     -1652330.6      0             -1636419.5     -7652.2955      5090222.8    
     19600   309.73634     -1652356.6      0             -1636422.4     -7593.1193      5089663.5    
     19700   309.9687      -1652371.4      0             -1636425.1     -7187.761       5089111.5    
     19800   311.04066     -1652429        0             -1636427.7     -6442.284       5088568      
     19900   311.96155     -1652478.6      0             -1636429.9     -5605.5625      5088035.2    
     20000   312.86607     -1652527.1      0             -1636431.8     -4682.2475      5087516      
     20100   312.40653     -1652504.9      0             -1636433.3     -3807.5069      5087013.2    
     20200   313.04689     -1652539.2      0             -1636434.6     -3208.564       5086529.1    
     20300   312.14286     -1652493.7      0             -1636435.7     -2735.7714      5086064.9    
     20400   311.8485      -1652479.5      0             -1636436.6     -2470.701       5085620.9    
     20500   312.98792     -1652539        0             -1636437.4     -2162.9041      5085196.7    
     20600   313.79137     -1652581        0             -1636438.2     -1932.5418      5084792      
     20700   313.03797     -1652542.9      0             -1636438.8     -1747.4119      5084406.2    
     20800   314.03642     -1652594.9      0             -1636439.4     -1801.0163      5084038.3    
     20900   314.14875     -1652601.3      0             -1636440.1     -1926.7573      5083686.7    
     21000   313.71951     -1652579.9      0             -1636440.7     -2054.7013      5083349.5    
     21100   313.50428     -1652569.4      0             -1636441.3     -1975.4804      5083025      
     21200   313.02952     -1652545.6      0             -1636441.9     -1460.4613      5082712.5    
     21300   313.31398     -1652560.6      0             -1636442.3     -526.9953       5082413.3    
     21400   313.98792     -1652595.5      0             -1636442.5      565.08827      5082130.6    
     21500   313.96927     -1652594.6      0             -1636442.6      1580.2793      5081868      
     21600   314.57065     -1652625.5      0             -1636442.5      2291.786       5081628.5    
     21700   314.527       -1652623.1      0             -1636442.4      2808.4069      5081413.8    
     21800   314.01508     -1652596.7      0             -1636442.3      3103.337       5081224.7    
     21900   314.46072     -1652619.5      0             -1636442.1      3367.6942      5081060.7    
     22000   314.98501     -1652646.4      0             -1636442.1      3655.7569      5080921.7    
     22100   314.64694     -1652628.9      0             -1636442        3837.308       5080807.2    
     22200   314.46162     -1652619.4      0             -1636442        3832.7693      5080716.7    
     22300   315.43344     -1652669.5      0             -1636442.1      3561.8192      5080648.5    
     22400   315.59763     -1652678        0             -1636442.2      3234.7728      5080600.2    
     22500   315.05218     -1652650.1      0             -1636442.4      3072.3373      5080569.5    
     22600   314.54686     -1652624.3      0             -1636442.6      3084.5739      5080554.5    
     22700   314.89473     -1652642.4      0             -1636442.8      3182.5834      5080554.3    
     22800   314.86075     -1652640.9      0             -1636443.1      3417.9152      5080568.9    
     22900   314.99646     -1652648.2      0             -1636443.3      3744.4948      5080598.3    
     23000   314.47826     -1652621.9      0             -1636443.7      4222.5448      5080643.5    
     23100   314.84957     -1652641.4      0             -1636444.1      4766.2907      5080705.8    
     23200   314.47134     -1652622.4      0             -1636444.6      5544.3521      5080787      
     23300   314.22969     -1652610.6      0             -1636445.2      6408.1108      5080889.7    
     23400   313.93969     -1652596.5      0             -1636445.9      7187.8964      5081016.8    
     23500   313.92871     -1652596.8      0             -1636446.9      7724.6321      5081170.7    
     23600   314.37243     -1652620.8      0             -1636448        7891.5581      5081352.6    
     23700   314.26124     -1652616.3      0             -1636449.3      7701.4822      5081561.9    
     23800   313.60833     -1652584        0             -1636450.6      7308.2201      5081796.7    
     23900   313.48074     -1652578.8      0             -1636451.9      6831.3038      5082054      
     24000   313.11192     -1652561.2      0             -1636453.3      6472.2307      5082330.7    
     24100   313.22919     -1652568.7      0             -1636454.7      6266.1185      5082624.3    
     24200   312.74419     -1652545.1      0             -1636456.1      6187.958       5082933.1    
     24300   313.28282     -1652574.3      0             -1636457.6      6084.1784      5083255.8    
     24400   313.48002     -1652585.9      0             -1636459.1      6093.2191      5083591.5    
     24500   313.56706     -1652592        0             -1636460.6      6262.5218      5083939.5    
     24600   313.69439     -1652600.2      0             -1636462.3      6513.2243      5084300      
     24700   312.69249     -1652550.4      0             -1636464.1      6802.1229      5084673.4    
     24800   312.83197     -1652559.5      0             -1636466        7136.1776      5085060.3    
     24900   312.99702     -1652570        0             -1636468        7373.0621      5085461.6    
     25000   313.17019     -1652581.1      0             -1636470.2      7600.0035      5085877.5    
     25100   313.07715     -1652578.6      0             -1636472.5      7779.0991      5086308.2    
     25200   313.77009     -1652616.7      0             -1636474.9      7800.0576      5086753.6    
     25300   313.97897     -1652629.9      0             -1636477.3      7800.6791      5087212.9    
     25400   313.31399     -1652598.2      0             -1636479.8      7658.139       5087685.2    
     25500   312.94821     -1652581.9      0             -1636482.4      7545.7924      5088168.8    
     25600   312.61311     -1652567.2      0             -1636484.9      7485.7107      5088662.4    
     25700   312.22787     -1652549.9      0             -1636487.5      7488.7304      5089164.9    
     25800   312.16779     -1652549.4      0             -1636490.1      7512.5327      5089675.4    
     25900   312.37996     -1652563        0             -1636492.7      7509.0143      5090193.3    
     26000   312.42555     -1652568        0             -1636495.4      7378.2854      5090717.7    
     26100   312.79147     -1652589.4      0             -1636498        7158.9967      5091247.4    
     26200   312.21621     -1652562.4      0             -1636500.6      6906.404       5091780.6    
     26300   311.44659     -1652525.3      0             -1636503        6704.6477      5092315.6    
     26400   311.62434     -1652536.9      0             -1636505.5      6526.3475      5092851.1    
     26500   311.37397     -1652526.4      0             -1636507.8      6379.3801      5093385.7    
     26600   311.18625     -1652519        0             -1636510.1      6075.1849      5093918.5    
     26700   312.10287     -1652568.3      0             -1636512.3      5722.5224      5094447.8    
     26800   312.17242     -1652573.9      0             -1636514.3      5482.858       5094971.9    
     26900   312.47168     -1652591.3      0             -1636516.3      5334.9868      5095489.9    
     27000   312.51108     -1652595.2      0             -1636518.2      5254.994       5096001.2    
     27100   312.6465      -1652604.1      0             -1636520.1      5168.1071      5096505.6    
     27200   312.54253     -1652600.5      0             -1636521.9      5129.3672      5097003      
     27300   312.217       -1652585.5      0             -1636523.7      5253.7984      5097493.5    
     27400   312.7234      -1652613.4      0             -1636525.5      5407.2668      5097977.8    
     27500   313.36157     -1652648.1      0             -1636527.4      5537.0712      5098457.1    
     27600   312.89114     -1652625.8      0             -1636529.2      5640.5019      5098932.2    
     27700   312.4171      -1652603.3      0             -1636531.1      5604.8376      5099403.7    
     27800   311.8581      -1652576.3      0             -1636532.9      5361.6604      5099871.6    
     27900   312.30611     -1652601.1      0             -1636534.6      4833.5042      5100334.7    
     28000   311.61383     -1652567        0             -1636536.1      4190.3689      5100791.2    
     28100   312.26499     -1652601.7      0             -1636537.4      3486.8769      5101238.4    
     28200   311.82725     -1652580.3      0             -1636538.4      2768.0565      5101673.8    
     28300   312.57812     -1652619.7      0             -1636539.3      1917.1161      5102094.7    
     28400   311.62349     -1652571.2      0             -1636539.9      1155.4047      5102498.3    
     28500   311.67602     -1652574.3      0             -1636540.3      509.10399      5102882.2    
     28600   311.88132     -1652585.2      0             -1636540.5      159.62846      5103244.9    
     28700   311.57312     -1652569.5      0             -1636540.8      125.69831      5103586.3    
     28800   311.94774     -1652589.1      0             -1636541        312.40045      5103907.6    
     28900   312.57995     -1652621.9      0             -1636541.3      548.71046      5104210.9    
     29000   313.26742     -1652657.6      0             -1636541.7      698.79206      5104498.6    
     29100   312.74626     -1652631.1      0             -1636542        795.93301      5104772.5    
     29200   312.33314     -1652610.2      0             -1636542.3      714.8177       5105033.8    
     29300   312.61788     -1652625.1      0             -1636542.6      571.51563      5105283.1    
     29400   312.7677      -1652633.1      0             -1636542.9      289.11295      5105520.6    
     29500   312.80082     -1652635        0             -1636543.1     -94.615854      5105745.8    
     29600   312.21195     -1652604.9      0             -1636543.3     -627.26333      5105957.7    
     29700   311.81299     -1652584.5      0             -1636543.3     -1375.3124      5106154.7    
     29800   311.84385     -1652586        0             -1636543.3     -2319.3669      5106334.3    
     29900   312.22102     -1652605.4      0             -1636543.3     -3203.5245      5106493.3    
     30000   312.09002     -1652598.5      0             -1636543.2     -3913.2274      5106628.9    
Loop time of 1174.95 on 6 procs for 30000 steps with 397994 atoms

Performance: 2.206 ns/day, 10.879 hours/ns, 25.533 timesteps/s
99.7% CPU use with 6 MPI tasks x 1 OpenMP threads

MPI task timing breakdown:
Section |  min time  |  avg time  |  max time  |%varavg| %total
---------------------------------------------------------------
Pair    | 705.85     | 833.8      | 928.84     | 271.2 | 70.96
Neigh   | 0.23291    | 0.25609    | 0.2696     |   3.0 |  0.02
Comm    | 31.99      | 39.638     | 54.341     | 129.1 |  3.37
Output  | 3.0841     | 3.0977     | 3.1239     |   0.9 |  0.26
Modify  | 169.57     | 258.17     | 369.97     | 451.1 | 21.97
Other   |            | 40         |            |       |  3.40

Nlocal:        66332.3 ave       69278 max       62280 min
Histogram: 2 0 0 0 0 0 0 0 3 1
Nghost:        34810.8 ave       37958 max       29644 min
Histogram: 2 0 0 0 0 0 0 1 0 3
Neighs:              0 ave           0 max           0 min
Histogram: 6 0 0 0 0 0 0 0 0 0

Total # of neighbors = -6
Ave neighs/atom = -1.5075604e-05
Neighbor list builds = 328
Dangerous builds = 0
write_restart bilayer-nial09-thermalised.init
System init for write_restart ...
write_data bilayer-nial09-thermalised.data
System init for write_data ...

Total wall time: 0:19:37
