LAMMPS (29 Sep 2021)
  using 1 OpenMP thread(s) per MPI task
Reading data file ...
  orthogonal box = (-0.39686059 -0.39310336 0.0000000) to (102.14488 101.64112 526.16902)
  3 by 2 by 16 MPI processor grid
  reading atoms ...
  444272 atoms
  reading velocities ...
  444272 velocities
  read_data CPU = 4.726 seconds
222085 atoms in group g_left
222187 atoms in group g_right

CITE-CITE-CITE-CITE-CITE-CITE-CITE-CITE-CITE-CITE-CITE-CITE-CITE

Your simulation uses code contributions which should be cited:
- @article{cjiang2012
The log file lists these citations in BibTeX format.

CITE-CITE-CITE-CITE-CITE-CITE-CITE-CITE-CITE-CITE-CITE-CITE-CITE

Neighbor list info ...
  update every 1 steps, delay 10 steps, check yes
  max neighbors/atom: 2000, page size: 100000
  master list distance cutoff = 8.28721
  ghost atom cutoff = 8.28721
  binsize = 4.143605, bins = 25 25 127
  3 neighbor lists, perpetual/occasional/extra = 3 0 0
  (1) pair eam/alloy, perpetual, skip from (3)
      attributes: half, newton on
      pair build: skip
      stencil: none
      bin: none
  (2) pair edip/multi, perpetual
      attributes: full, newton on
      pair build: full/bin/atomonly
      stencil: full/bin/3d
      bin: standard
  (3) neighbor class addition, perpetual, half/full from (2)
      attributes: half, newton on
      pair build: halffull/newton
      stencil: none
      bin: none
Setting up Verlet run ...
  Unit style    : metal
  Current step  : 0
  Time step     : 0.00025
Per MPI rank memory allocation (min/avg/max) = 8.328 | 12.55 | 14.57 Mbytes
Step Time Temp Press PotEng KinEng TotEng Volume 
       0            0    18071.702    198197.99   -2068877.4    1037795.2   -1031082.2    5505183.5 
     100        0.025    18070.197    198711.46   -2068868.8    1037708.8     -1031160    5489489.4 
     200         0.05    18070.002    199165.39   -2068882.6    1037697.6     -1031185    5473795.2 
     300        0.075    18070.297    199694.23   -2068881.2    1037714.5   -1031166.7    5458101.1 
     400          0.1    18069.903    200522.05   -2068844.2    1037691.9   -1031152.3    5442406.9 
     500        0.125    18070.605    200882.65   -2068874.6    1037732.2   -1031142.4    5426712.8 
     600         0.15    18070.609    201310.48   -2068887.9    1037732.5   -1031155.4    5411018.6 
     700        0.175    18069.896    201949.45   -2068866.8    1037691.5   -1031175.3    5395324.5 
     800          0.2    18069.707    202602.27   -2068872.4    1037680.7   -1031191.7    5379630.3 
     900        0.225    18069.095    203294.56   -2068840.1    1037645.5   -1031194.6    5363936.2 
    1000         0.25    18069.542    203868.08   -2068865.7    1037671.1   -1031194.6      5348242 
    1100        0.275     18069.87    204336.92   -2068880.7      1037690   -1031190.7    5332547.9 
    1200          0.3    18069.525    205055.26   -2068858.6    1037670.2   -1031188.4    5316853.7 
    1300        0.325    18069.809     205787.7   -2068850.4    1037686.5   -1031163.9    5301159.6 
    1400         0.35    18070.209    206188.13   -2068857.9    1037709.5   -1031148.4    5285465.4 
    1500        0.375    18070.558    206788.31   -2068874.2    1037729.5   -1031144.7    5269771.3 
    1600          0.4    18073.228    207257.59   -2069036.2    1037882.8   -1031153.4    5254077.1 
    1700        0.425    18079.507    208307.17   -2069417.1    1038243.4   -1031173.7      5238383 
    1800         0.45    18047.701    210234.72   -2067601.9    1036416.9     -1031185    5222688.8 
    1900        0.475    18007.925    213630.87   -2065321.9    1034132.7   -1031189.2    5206994.7 
    2000          0.5     17960.62    217281.42   -2062605.6    1031416.1   -1031189.5    5191300.5 
    2100        0.525    17915.682    220989.82     -2060028    1028835.5   -1031192.4    5175606.4 
    2200         0.55    17859.504    224777.37   -2056796.7    1025609.4   -1031187.2    5159912.2 
    2300        0.575    17819.779    228419.21     -2054517    1023328.1   -1031188.9    5144218.1 
    2400          0.6     17760.73    232229.68   -2051115.5    1019937.2   -1031178.4    5128523.9 
    2500        0.625    17657.432    239145.97   -2045162.9    1014005.1   -1031157.7    5112829.8 
    2600         0.65    17554.637    246380.21   -2039249.9      1008102     -1031148    5097135.6 
    2700        0.675     17437.39    252760.11   -2032512.5    1001368.9   -1031143.6    5081441.5 
    2800          0.7    17318.511    260383.72   -2025696.6    994542.06   -1031154.5    5065747.3 
    2900        0.725    17200.774    267722.07   -2018935.2     987780.8   -1031154.4    5050053.2 
    3000         0.75    17062.164    274291.33   -2010978.1    979820.93   -1031157.1      5034359 
    3100        0.775    16933.467    282315.79   -2003585.6    972430.32   -1031155.3    5018664.9 
    3200          0.8    16799.583    291127.52   -1995889.7    964741.83   -1031147.9    5002970.7 
    3300        0.825    16652.994    300724.43   -1987476.9    956323.75   -1031153.1    4987276.6 
    3400         0.85    16507.514    310829.79   -1979123.5    947969.29   -1031154.2    4971582.4 
    3500        0.875    16356.479    321264.74   -1970436.5     939295.9   -1031140.6    4955888.3 
    3600          0.9    16203.434    332005.53   -1961639.8    930507.03   -1031132.8    4940194.1 
    3700        0.925    16050.204    343303.05   -1952855.9    921707.59   -1031148.3      4924500 
    3800         0.95    15893.343    354656.86   -1943855.9    912699.59   -1031156.3    4908805.8 
    3900        0.975    15737.544    366127.23   -1934901.7     903752.6   -1031149.1    4893111.7 
    4000            1    15581.099    377779.32   -1925899.3    894768.53   -1031130.8    4877417.5 
    4100        1.025     15426.12    389779.05   -1916975.8     885868.6   -1031107.2    4861723.4 
    4200         1.05    15268.835    401507.47   -1907926.5    876836.24   -1031090.3    4846029.2 
    4300        1.075    15113.692    412961.64   -1899019.6    867926.95   -1031092.6    4830335.1 
    4400          1.1    14957.476    425255.15   -1890066.5    858955.98   -1031110.6    4814640.9 
    4500        1.125    14802.652    436954.53   -1881184.5    850064.98   -1031119.5    4798946.8 
    4600         1.15    14647.958    448443.39   -1872296.5    841181.45     -1031115    4783252.6 
    4700        1.175    14494.594     460119.1   -1863475.6    832374.28   -1031101.3    4767558.5 
    4800          1.2    14341.404    471862.11   -1854666.5    823577.14   -1031089.3    4751864.3 
    4900        1.225    14189.374    483399.91   -1845933.3    814846.59   -1031086.7    4736170.2 
    5000         1.25    14035.405     494931.7   -1837094.5    806004.68   -1031089.8      4720476 
    5100        1.275    13885.073    506283.98   -1828457.9     797371.6   -1031086.3    4704781.9 
    5200          1.3    13729.712    517443.22     -1819539    788449.77   -1031089.2    4689087.7 
    5300        1.325    13575.989    529032.62   -1810722.8       779622   -1031100.8    4673393.6 
    5400         1.35    13423.675     540486.3   -1801980.1    770875.11     -1031105    4657699.4 
    5500        1.375    13272.704    551752.48   -1793308.8    762205.41   -1031103.4    4642005.3 
    5600          1.4    13112.276    568312.43   -1784085.2    752992.54   -1031092.7    4626311.1 
    5700        1.425    13003.757    587213.48     -1777843     746760.7   -1031082.3      4610617 
    5800         1.45    12895.199    601605.07   -1771596.6    740526.57     -1031070    4594922.8 
    5900        1.475    12812.049     615029.4   -1766809.8    735751.55   -1031058.2    4579228.7 
    6000          1.5    12717.907     621876.2   -1761385.7    730345.29   -1031040.4    4563534.5 
    6100        1.525    12629.906     632024.9   -1756318.6    725291.72   -1031026.8    4547840.4 
    6200         1.55    12561.385    648234.17   -1752359.1    721356.83   -1031002.3    4532146.2 
    6300        1.575    12481.175    653440.35   -1747732.5    716750.59   -1030981.9    4516452.1 
    6400          1.6    12411.754    660195.61     -1743744       712764     -1030980    4500757.9 
    6500        1.625     12318.37    671204.47   -1738372.3    707401.29     -1030971    4485063.8 
    6600         1.65    12212.445    682559.02   -1732298.8     701318.4   -1030980.4    4469369.6 
    6700        1.675    12102.581    694759.86   -1726000.9    695009.28   -1030991.6    4453675.5 
    6800          1.7    11986.657    706659.12   -1719347.7    688352.18   -1030995.5    4437981.3 
    6900        1.725    11871.502     720585.8   -1712738.1    681739.23   -1030998.9    4422287.2 
    7000         1.75    11746.311    733378.35   -1705547.3    674549.91   -1030997.3      4406593 
    7100        1.775    11621.277    745873.17     -1698364    667369.65   -1030994.3    4390898.9 
    7200          1.8    11485.514    759227.13   -1690578.5    659573.28   -1031005.2    4375204.7 
    7300        1.825    11356.634    772708.06   -1683177.1    652172.15     -1031005    4359510.6 
    7400         1.85    11216.467    785859.95   -1675127.5    644122.82   -1031004.6    4343816.4 
    7500        1.875    11081.809    799626.88   -1667387.1    636389.91   -1030997.2    4328122.3 
    7600          1.9    10936.939    813004.95   -1659051.9     628070.5   -1030981.4    4312428.1 
    7700        1.925    10795.371    826687.57   -1650900.8    619940.76   -1030960.1      4296734 
    7800         1.95    10644.674    842490.88   -1642254.9    611286.76   -1030968.1    4281039.8 
    7900        1.975    10485.681    857452.92   -1633133.3    602156.34     -1030977    4265345.7 
    8000            2    10328.329    871445.59   -1624088.3    593120.13   -1030968.2    4249651.5 
    8100        2.025    10166.444    886602.55   -1614781.9    583823.67   -1030958.3    4233957.4 
    8200         2.05    10004.253    902016.41   -1605468.6    574509.58   -1030959.1    4218263.2 
    8300        2.075     9842.999    916555.32   -1596235.6    565249.31   -1030986.3    4202569.1 
    8400          2.1    9680.5731    929641.47   -1586915.8    555921.76     -1030994    4186874.9 
    8500        2.125    9526.8429    942946.33   -1578086.5    547093.57     -1030993    4171180.8 
    8600         2.15    9368.1477    957312.32   -1568966.5    537980.25   -1030986.3    4155486.6 
    8700        2.175    9225.7804    970333.06   -1560795.7    529804.59   -1030991.1    4139792.5 
    8800          2.2     9091.295    983403.98   -1553079.1    522081.56   -1030997.5    4124098.3 
    8900        2.225    8943.2971    996557.73   -1544585.4    513582.55   -1031002.9    4108404.2 
    9000         2.25    8814.2407    1009270.7   -1537179.7    506171.29   -1031008.4      4092710 
    9100        2.275    8671.9357      1021751   -1529026.1    497999.21   -1031026.9    4077015.9 
    9200          2.3     8547.197    1032584.3   -1521872.9     490835.9     -1031037    4061321.7 
    9300        2.325    8619.2515    1035677.4     -1526024    494973.74   -1031050.3    4045627.6 
    9400         2.35    8577.2237    1031511.4   -1523613.4    492560.23   -1031053.2    4029933.4 
    9500        2.375    8485.1859    1029123.4   -1518323.3    487274.82   -1031048.5    4014239.3 
    9600          2.4     8492.404    1030344.2   -1518728.4    487689.32   -1031039.1    3998545.1 
    9700        2.425    8525.0774    1033945.7   -1520596.1    489565.65   -1031030.4      3982851 
    9800         2.45    8482.2805    1036944.5   -1518114.8    487107.97   -1031006.8    3967156.8 
    9900        2.475    8501.6176    1039011.4   -1519227.6    488218.43   -1031009.2    3951462.7 
   10000          2.5    8474.4436    1038003.4     -1517677    486657.92   -1031019.1    3935768.5 
   10100        2.525    8460.0977    1038165.6   -1516867.6    485834.09   -1031033.5    3920074.4 
   10200         2.55    8449.9928    1037812.8   -1516297.2     485253.8   -1031043.4    3904380.2 
   10300        2.575    8442.8481    1039995.7   -1515885.1     484843.5   -1031041.6    3888686.1 
   10400          2.6      8352.61    1048160.4   -1510693.4    479661.44     -1031032    3872991.9 
   10500        2.625    8313.3538    1051951.2   -1508442.2    477407.09   -1031035.1    3857297.8 
   10600         2.65    8125.2758    1056177.4   -1497639.2    466606.43   -1031032.7    3841603.6 
   10700        2.675    8065.2228    1067331.4   -1494198.8    463157.79     -1031041    3825909.5 
   10800          2.7    7891.5241    1080344.1   -1484236.5    453182.88   -1031053.6    3810215.3 
   10900        2.725    7737.7735    1086608.3   -1475426.1    444353.51   -1031072.5    3794521.2 
   11000         2.75    7556.0598    1099511.2   -1464970.2    433918.32   -1031051.9      3778827 
   11100        2.775    7377.0802    1115032.1   -1454672.7    423640.14   -1031032.6    3763132.9 
   11200          2.8    7177.2337    1130282.5   -1443181.4    412163.66   -1031017.7    3747438.7 
   11300        2.825    6984.2205    1143813.6   -1432114.5    401079.58   -1031034.9    3731744.6 
   11400         2.85    6778.0151    1160858.2   -1420296.3    389237.91   -1031058.4    3716050.4 
   11500        2.875    6586.1529    1177307.9     -1409287    378219.93     -1031067    3700356.3 
   11600          2.9    6395.9821    1194997.7   -1398357.5    367299.08   -1031058.4    3684662.1 
   11700        2.925    6226.0256    1211261.1   -1388602.9    357539.07   -1031063.8      3668968 
   11800         2.95    6058.8568    1228439.9   -1379013.9    347939.15   -1031074.8    3653273.8 
   11900        2.975    5916.5437    1244619.3   -1370847.7     339766.6   -1031081.1    3637579.7 
   12000            3    5783.5022    1261839.9   -1363207.6    332126.48   -1031081.1    3621885.5 
   12100        3.025    5652.0298    1277664.4   -1355628.2    324576.48   -1031051.7    3606191.4 
   12200         3.05    5535.1591    1294043.8   -1348903.3       317865   -1031038.3    3590497.3 
   12300        3.075    5422.6612    1313049.7   -1342448.3    311404.64   -1031043.6    3574803.1 
   12400          3.1    5318.1692    1330227.7     -1336469    305404.02   -1031064.9      3559109 
   12500        3.125    5209.8434    1349231.6   -1330250.8    299183.25   -1031067.6    3543414.8 
   12600         3.15    5099.3259    1367883.3   -1323932.4    292836.61   -1031095.8    3527720.7 
   12700        3.175    4992.0093    1387171.7   -1317788.1    286673.79   -1031114.4    3512026.5 
   12800          3.2    4858.2763    1405340.2   -1310108.8    278993.97   -1031114.8    3496332.4 
   12900        3.225    4732.9832    1423730.2   -1302886.7    271798.82   -1031087.9    3480638.2 
   13000         3.25    4597.7412    1443143.1   -1295105.6    264032.34   -1031073.3    3464944.1 
   13100        3.275    4462.2972    1462130.9   -1287334.4    256254.26   -1031080.1    3449249.9 
   13200          3.3    4329.0124    1484802.7   -1279706.3    248600.18   -1031106.1    3433555.8 
   13300        3.325    4177.1876    1510140.6     -1271004    239881.41   -1031122.6    3417861.6 
   13400         3.35    4100.4143    1533194.7   -1266594.5    235472.58   -1031121.9    3402167.5 
   13500        3.375    4160.3431    1544515.3   -1270039.5    238914.09   -1031125.4    3386473.3 
   13600          3.4    4079.9591      1553095   -1265425.8    234297.91   -1031127.9    3370779.2 
   13700        3.425    4063.8204    1559778.1     -1264481    233371.12   -1031109.9      3355085 
   13800         3.45    4085.0524      1570192   -1265516.9     234590.4   -1030926.5    3339390.9 
   13900        3.475    4010.2026    1582110.5   -1261028.7    230292.04   -1030736.6    3323696.7 
   14000          3.5    4045.0219      1604593   -1240943.5    232291.59   -1008651.9    3308002.6 
   14100        3.525     4577.947    1628017.1   -1234050.5    262895.63   -971154.89    3292308.4 
   14200         3.55    4338.7314    1657616.5   -1203998.1    249158.31   -954839.82    3276614.3 
   14300        3.575    4490.3735    1708970.6   -1183095.6    257866.59   -925229.05    3260920.1 
   14400          3.6    4720.7373    1751047.9   -1147190.4    271095.58   -876094.83      3245226 
   14500        3.625    4885.5614    1813012.3     -1113692    280560.86   -833131.16    3229531.8 
   14600         3.65    5139.7487    1871673.9   -1078636.9    295157.96   -783478.92    3213837.7 
   14700        3.675    5530.8074    1928193.1   -1043895.4     317615.1   -726280.35    3198143.5 
   14800          3.7    5933.7825    1989676.8   -1011473.4    340756.56   -670716.87    3182449.4 
   14900        3.725    6349.0734    2045065.6   -980428.93    364605.28   -615823.65    3166755.2 
   15000         3.75    6815.1112      2102510   -951214.32    391368.21   -559846.11    3151061.1 
   15100        3.775    7255.0239    2158242.3   -922472.69    416630.88   -505841.81    3135366.9 
   15200          3.8    7702.7582    2212742.1   -895731.04    442342.71   -453388.33    3119672.8 
   15300        3.825    8133.4737    2269491.6   -867203.65     467077.2   -400126.45    3103978.6 
   15400         3.85    8501.9557    2327704.5   -836769.58    488237.85   -348531.74    3088284.5 
   15500        3.875    8826.0795    2387160.1   -805291.91    506851.15   -298440.76    3072590.3 
   15600          3.9     9132.921    2447299.6   -772706.31       524472   -248234.31    3056896.2 
   15700        3.925    9425.3825    2507312.8   -738777.95    541267.05    -197510.9      3041202 
   15800         3.95    9637.1977      2572455   -701729.77    553430.86   -148298.91    3025507.9 
   15900        3.975    9945.5219    2632544.4   -669309.27    571136.85    -98172.42    3009813.7 
   16000            4    10422.629    2681622.4   -645738.56    598535.45   -47203.115    2994119.6 
   16100        4.025    11026.179    2709193.9   -627814.45    633195.26    5380.8051    2978425.4 
   16200         4.05    11578.592    2740149.8   -606307.96    664918.41    58610.451    2962731.3 
   16300        4.075    12124.062    2792991.1   -583259.39    696242.86    112983.46    2947037.1 
   16400          4.1    12617.225    2859040.7   -555240.19    724563.49     169323.3      2931343 
   16500        4.125    13071.096    2921859.6   -522920.83    750627.72    227706.89    2915648.8 
   16600         4.15    13486.504    2987387.5   -487276.82     774483.2    287206.38    2899954.7 
   16700        4.175     13947.81      3060135   -451878.57     800974.4    349095.82    2884260.5 
   16800          4.2    14439.053    3136295.1    -417483.7    829184.79    411701.09    2868566.4 
   16900        4.225     14924.29    3213936.2    -383234.1    857050.22    473816.13    2852872.2 
   17000         4.25    15344.309    3288954.6   -348829.69    881170.45    532340.77    2837178.1 
   17100        4.275    15697.697    3366393.6   -314630.45    901464.31    586833.86    2821483.9 
   17200          4.3    15928.476    3438327.3   -279099.45    914717.19    635617.74    2805789.8 
   17300        4.325    16093.562    3513136.6   -243958.26    924197.46     680239.2    2790095.6 
   17400         4.35     16218.36    3589042.9   -209874.27    931364.19    721489.92    2774401.5 
   17500        4.375    16367.187    3659357.4   -178798.58    939910.81    761112.23    2758707.3 
   17600          4.4    16572.203    3726765.7    -150869.8    951684.17    800814.37    2743013.2 
   17700        4.425    16883.629    3798441.1   -126541.55    969568.27    843026.71      2727319 
   17800         4.45    17311.068    3886209.1   -104953.78    994114.62    889160.85    2711624.9 
   17900        4.475    17917.562    3990072.4    -87990.43    1028943.5    940953.05    2695930.7 
   18000          4.5    18629.997    4089591.6   -73493.657    1069856.2    996362.51    2680236.6 
   18100        4.525    19375.607    4188866.4   -57575.032      1112674    1055098.9    2664542.4 
   18200         4.55    20151.685      4265714   -42534.153    1157241.4    1114707.3    2648848.3 
   18300        4.575    20979.378    4340126.7   -28207.669      1204773    1176565.3    2633154.1 
   18400          4.6    21834.238    4415898.4   -15541.011    1253864.6    1238323.6      2617460 
   18500        4.625    22548.458    4499006.1    6564.0226    1294879.8    1301443.8    2601765.8 
   18600         4.65    23145.554    4597120.2    34238.738    1329168.9    1363407.7    2586071.7 
   18700        4.675    23709.297    4712024.4    63918.801    1361542.7    1425461.6    2570377.5 
   18800          4.7    24171.004    4830811.8    97840.886      1388057    1485897.9    2554683.4 
   18900        4.725    24645.563    4952683.3    131247.51    1415309.3    1546556.8    2538989.2 
   19000         4.75    25034.355    5068516.3     168413.2    1437636.3    1606049.5    2523295.1 
   19100        4.775    25432.123    5176551.7    204194.35    1460478.7      1664673    2507600.9 
   19200          4.8    25834.442    5282074.9    240074.94    1483582.5    1723657.4    2491906.8 
   19300        4.825    26254.639    5387043.3    274457.46    1507712.9    1782170.4    2476212.6 
   19400         4.85    26697.688    5485092.8    307947.51    1533155.7    1841103.2    2460518.5 
   19500        4.875    27138.142    5587997.6    340991.19    1558449.4    1899440.6    2444824.3 
   19600          4.9    27630.283    5686725.3     371724.6    1586711.4      1958436    2429130.2 
   19700        4.925    28144.513    5776451.2    400674.43    1616241.8    2016916.2      2413436 
   19800         4.95    28445.909    5877617.8    439993.71    1633549.9    2073543.7    2397741.9 
   19900        4.975    28281.598    6009488.8    504893.27    1624114.2    2129007.4    2382047.7 
   20000            5    28054.125    6160984.3     571605.9    1611051.2    2182657.1    2366353.6 
   20100        5.025    27509.612    6322447.2    653390.03    1579781.7    2233171.7    2350659.4 
   20200         5.05    26843.211    6487855.3    739989.63    1541512.6    2281502.2    2334965.3 
   20300        5.075      26161.4    6665325.1    824183.34    1502358.5    2326541.9    2319271.1 
   20400          5.1     25427.03    6848163.3    909693.01    1460186.2    2369879.2      2303577 
   20500        5.125    24744.091    7031073.9     989904.7    1420967.4    2410872.1    2287882.8 
   20600         5.15    24039.321    7212854.2    1068434.1    1380494.9    2448928.9    2272188.7 
   20700        5.175    23244.621    7417597.9    1150404.4      1334858    2485262.4    2256494.5 
   20800          5.2    22397.678    7692701.1    1233278.2      1286221    2519499.2    2240800.4 
   20900        5.225    21585.639    8019965.5    1313338.3    1239588.4    2552926.8    2225106.2 
   21000         5.25    20748.306    8253026.1    1393385.1    1191503.3    2584888.4    2209412.1 
   21100        5.275    19880.801    8424620.5    1475130.5    1141685.5      2616816    2193717.9 
   21200          5.3    19061.217      8627957    1553759.9    1094619.6    2648379.5    2178023.8 
   21300        5.325    18156.371    8824569.6    1637286.7    1042657.5    2679944.2    2162329.6 
   21400         5.35    17275.327    8999984.5    1720732.7    992062.12    2712794.8    2146635.5 
   21500        5.375    16396.717    9198012.9      1805353    941606.61    2746959.6    2130941.3 
   21600          5.4    15656.004    9389237.4    1885780.9    899070.05      2784851    2115247.2 
   21700        5.425    15159.823    9568540.6    1956680.2    870576.08    2827256.3      2099553 
   21800         5.45    14921.841    9740005.3    2018870.3    856909.59    2875779.9    2083858.9 
   21900        5.475    14868.018      9900566    2074814.1    853818.76    2928632.9    2068164.7 
   22000          5.5    14832.321     10078742    2131478.7    851768.76    2983247.5    2052470.6 
   22100        5.525    14825.595     10274844    2188835.9    851382.51    3040218.4    2036776.4 
   22200         5.55    14875.369     10450276    2244891.1     854240.9      3099132    2021082.3 
   22300        5.575    14861.876     10641912    2306954.2    853466.05    3160420.3    2005388.1 
   22400          5.6    14679.812     10843478    2379902.1    843010.73    3222912.8      1989694 
   22500        5.625    14291.946     11058216    2466052.5    820736.95    3286789.5    1973999.8 
   22600         5.65     13820.56     11290133    2558053.8    793666.86    3351720.6    1958305.7 
   22700        5.675    13474.637     11537502      2647065    773801.71    3420866.8    1942611.5 
   22800          5.7    13387.199     11794665    2737652.5    768780.46      3506433    1926917.4 
   22900        5.725    13767.825     12149072    2869024.4    790638.45    3659662.9    1911223.2 
   23000         5.75    15065.077     12574909    3020930.7    865135.13    3886065.9    1895529.1 
   23100        5.775    15920.446     12987002    3184912.1    914256.05    4099168.2    1879834.9 
   23200          5.8    17004.408     13405223    3341459.9    976504.19    4317964.1    1864140.8 
   23300        5.825    18149.039     13863510    3504033.7    1042236.4    4546270.1    1848446.6 
   23400         5.85     18971.54     14315006      3672157    1089469.8    4761626.8    1832752.5 
   23500        5.875     20017.95     14770878      3829657    1149561.5    4979218.5    1817058.3 
   23600          5.9    21283.835     15252853    3981181.4    1222256.9    5203438.3    1801364.2 
   23700        5.925    22263.588     15754598    4148516.5    1278520.7    5427037.2      1785670 
   23800         5.95    23215.385     16239691    4323166.3    1333179.1    5656345.5    1769975.9 
   23900        5.975    24097.288     16720622      4496028    1383823.7    5879851.7    1754281.7 
