LAMMPS (29 Sep 2021)
  using 1 OpenMP thread(s) per MPI task
Reading data file ...
  orthogonal box = (-0.26132258 -0.26394554 0.0000000) to (101.47871 101.48133 719.80400)
  1 by 2 by 12 MPI processor grid
  reading atoms ...
  516124 atoms
  reading velocities ...
  516124 velocities
  read_data CPU = 1.102 seconds
258178 atoms in group g_left
257946 atoms in group g_right

CITE-CITE-CITE-CITE-CITE-CITE-CITE-CITE-CITE-CITE-CITE-CITE-CITE

Your simulation uses code contributions which should be cited:
- GPU package (short-range, long-range and three-body potentials):
The log file lists these citations in BibTeX format.

CITE-CITE-CITE-CITE-CITE-CITE-CITE-CITE-CITE-CITE-CITE-CITE-CITE


--------------------------------------------------------------------------
- Using acceleration for eam/alloy:
-  with 12 proc(s) per device.
-  Horizontal vector operations: ENABLED
-  Shared memory system: No
--------------------------------------------------------------------------
Device 0: Tesla V100-SXM2-32GB, 80 CUs, 28/32 GB, 1.5 GHZ (Mixed Precision)
Device 1: Tesla V100-SXM2-32GB, 80 CUs, 1.5 GHZ (Mixed Precision)
--------------------------------------------------------------------------

Initializing Device and compiling on process 0...Done.
Initializing Devices 0-1 on core 0...Done.
Initializing Devices 0-1 on core 1...Done.
Initializing Devices 0-1 on core 2...Done.
Initializing Devices 0-1 on core 3...Done.
Initializing Devices 0-1 on core 4...Done.
Initializing Devices 0-1 on core 5...Done.
Initializing Devices 0-1 on core 6...Done.
Initializing Devices 0-1 on core 7...Done.
Initializing Devices 0-1 on core 8...Done.
Initializing Devices 0-1 on core 9...Done.
Initializing Devices 0-1 on core 10...Done.
Initializing Devices 0-1 on core 11...Done.

Setting up Verlet run ...
  Unit style    : metal
  Current step  : 0
  Time step     : 0.00025
Per MPI rank memory allocation (min/avg/max) = 8.790 | 11.48 | 11.84 Mbytes
Step Time Temp Press PotEng KinEng TotEng Volume 
       0            0    2018.5075    16480.443   -1999067.5    134662.98   -1864404.5    7451099.8 
     100        0.025    2018.8096    16462.235   -1999100.3    134683.13   -1864417.2      7445924 
     200         0.05    2018.6317    16472.664   -1999085.4    134671.27   -1864414.1    7440748.2 
     300        0.075    2018.8535     16475.89   -1999091.7    134686.06   -1864405.6    7435572.5 
     400          0.1    2018.5811    16478.113   -1999075.7    134667.89   -1864407.8    7430396.7 
     500        0.125    2018.7302    16478.719   -1999095.2    134677.84   -1864417.4    7425220.9 
     600         0.15    2018.6605    16487.771   -1999091.4    134673.18   -1864418.2    7420045.1 
     700        0.175    2018.7168    16486.748   -1999089.3    134676.94   -1864412.3    7414869.3 
     800          0.2    2018.2954    16493.738     -1999061    134648.83   -1864412.2    7409693.5 
     900        0.225    2018.5439    16492.004   -1999078.7    134665.41   -1864413.3    7404517.8 
    1000         0.25    2018.7304    16496.535   -1999084.5    134677.85   -1864406.6      7399342 
    1100        0.275    2018.9903    16506.601     -1999091    134695.19   -1864395.8    7394166.2 
    1200          0.3      2019.14    16521.513     -1999103    134705.18   -1864397.9    7388990.4 
    1300        0.325    2018.5803    16557.589   -1999071.1    134667.84   -1864403.3    7383814.6 
    1400         0.35    2018.8848    16554.993   -1999082.6    134688.15   -1864394.4    7378638.8 
    1500        0.375     2019.201    16559.101   -1999094.9    134709.25   -1864385.7      7373463 
    1600          0.4    2018.4476    16597.356   -1999046.6    134658.99   -1864387.6    7368287.3 
    1700        0.425    2019.3356    16593.963   -1999105.7    134718.23   -1864387.5    7363111.5 
    1800         0.45    2019.1528    16615.953   -1999084.9    134706.03   -1864378.9    7357935.7 
    1900        0.475    2019.4192    16641.141   -1999094.4     134723.8   -1864370.6    7352759.9 
    2000          0.5    2018.8825    16666.561     -1999061       134688     -1864373    7347584.1 
    2100        0.525     2019.042    16646.273   -1999072.9    134698.64   -1864374.3    7342408.3 
    2200         0.55    2019.6834    16624.376   -1999109.8    134741.43   -1864368.4    7337232.6 
    2300        0.575    2019.4014     16646.51   -1999093.1    134722.61   -1864370.5    7332056.8 
    2400          0.6    2019.0036    16659.948   -1999072.9    134696.08   -1864376.9      7326881 
    2500        0.625     2019.358    16669.505     -1999092    134719.72   -1864372.3    7321705.2 
    2600         0.65     2019.256    16694.146   -1999080.6    134712.92   -1864367.7    7316529.4 
    2700        0.675    2019.0883    16706.862   -1999072.9    134701.72   -1864371.2    7311353.6 
    2800          0.7    2019.3965     16717.47   -1999094.1    134722.29   -1864371.8    7306177.9 
    2900        0.725    2019.2752    16745.578   -1999076.5     134714.2   -1864362.3    7301002.1 
    3000         0.75    2019.2597    16775.332   -1999068.7    134713.16   -1864355.5    7295826.3 
    3100        0.775    2019.7578    16775.294   -1999106.4    134746.39     -1864360    7290650.5 
    3200          0.8    2019.5138    16777.159   -1999097.9    134730.11   -1864367.8    7285474.7 
    3300        0.825    2019.1506     16798.56   -1999073.3    134705.88   -1864367.4    7280298.9 
    3400         0.85    2019.0659    16827.399   -1999064.5    134700.23   -1864364.3    7275123.2 
    3500        0.875    2019.2379    16838.032   -1999075.3    134711.71   -1864363.6    7269947.4 
    3600          0.9    2019.6276    16846.923   -1999095.3    134737.71   -1864357.6    7264771.6 
    3700        0.925    2019.8445    16852.372   -1999101.6    134752.18   -1864349.5    7259595.8 
    3800         0.95    2019.3332     16869.65   -1999064.5    134718.06   -1864346.4      7254420 
    3900        0.975    2019.0875    16876.822     -1999055    134701.67   -1864353.4    7249244.2 
    4000            1    2019.6574    16860.693   -1999099.4    134739.69   -1864359.7    7244068.5 
    4100        1.025    2019.4805    16888.185   -1999081.9    134727.89     -1864354    7238892.7 
    4200         1.05    2019.7348    16914.332   -1999092.1    134744.85   -1864347.2    7233716.9 
    4300        1.075    2019.4642    16933.122   -1999078.4    134726.81   -1864351.6    7228541.1 
    4400          1.1     2019.132    16951.347   -1999064.6    134704.65   -1864359.9    7223365.3 
    4500        1.125    2019.9268    16917.531   -1999121.5    134757.67   -1864363.8    7218189.5 
    4600         1.15     2020.153    16866.725     -1999143    134772.76   -1864370.2    7213013.7 
    4700        1.175    2022.5031    16765.106   -1999309.8    134929.54   -1864380.3      7207838 
    4800          1.2    2026.2351     16646.86     -1999558    135178.52   -1864379.5    7202662.2 
    4900        1.225    2033.5608    16436.343   -2000037.7    135667.25   -1864370.4    7197486.4 
    5000         1.25    2042.1033    16456.634   -2000608.6    136237.15   -1864371.4    7192310.6 
    5100        1.275    2036.4023    17178.296   -2000235.4    135856.82   -1864378.6    7187134.8 
    5200          1.3    2033.0105     18070.54   -2000004.6    135630.53   -1864374.1      7181959 
    5300        1.325    2030.7435    18975.923   -1999843.5    135479.29   -1864364.2    7176783.3 
    5400         1.35    2023.2614    19846.613   -1999351.4    134980.13   -1864371.2    7171607.5 
    5500        1.375    2019.6816    20604.875   -1999130.2    134741.31   -1864388.9    7166431.7 
    5600          1.4    2012.3689    21439.502   -1998645.9    134253.45   -1864392.5    7161255.9 
    5700        1.425    2005.8106    22381.718     -1998201    133815.91   -1864385.1    7156080.1 
    5800         1.45    2002.3557    23289.563   -1997963.6    133585.43   -1864378.2    7150904.3 
    5900        1.475    1993.8143    24241.635   -1997387.8    133015.59   -1864372.2    7145728.6 
    6000          1.5    1987.9677    25165.442   -1996992.3    132625.54   -1864366.8    7140552.8 
    6100        1.525    1983.8372    25982.883   -1996718.3    132349.98   -1864368.3      7135377 
    6200         1.55    1976.4586    26850.291   -1996230.1    131857.72   -1864372.4    7130201.2 
    6300        1.575    1972.1827    27686.738   -1995935.9    131572.46   -1864363.5    7125025.4 
    6400          1.6    1966.0329    28545.301   -1995513.3    131162.18   -1864351.1    7119849.6 
    6500        1.625    1960.2971    29396.661   -1995131.8    130779.52   -1864352.3    7114673.9 
    6600         1.65    1954.2027    30272.047   -1994733.8    130372.94   -1864360.9    7109498.1 
    6700        1.675     1947.669    31119.393   -1994294.9    129937.05   -1864357.9    7104322.3 
    6800          1.7    1943.0297    31908.893   -1993980.9    129627.55   -1864353.4    7099146.5 
    6900        1.725    1936.3973    32760.274   -1993546.8    129185.07   -1864361.7    7093970.7 
    7000         1.75    1930.0074    33605.334   -1993129.6    128758.77   -1864370.8    7088794.9 
    7100        1.775    1924.1992    34432.235   -1992740.6    128371.28   -1864369.3    7083619.2 
    7200          1.8    1919.2472    35263.793   -1992403.5    128040.92   -1864362.6    7078443.4 
    7300        1.825    1913.2133    36099.035   -1991998.3    127638.36   -1864359.9    7073267.6 
    7400         1.85    1907.0773     36918.47   -1991584.4    127229.01   -1864355.4    7068091.8 
    7500        1.875    1900.8414    37760.451   -1991164.6    126812.99   -1864351.6      7062916 
    7600          1.9    1895.6511    38592.699   -1990820.6    126466.72   -1864353.8    7057740.2 
    7700        1.925    1889.3361    39432.417   -1990407.2    126045.42   -1864361.8    7052564.5 
    7800         1.95     1883.942    40268.586   -1990049.7    125685.56   -1864364.1    7047388.7 
    7900        1.975    1878.4555    41062.016   -1989679.9    125319.53   -1864360.3    7042212.9 
    8000            2    1872.0643    41854.394     -1989254    124893.15   -1864360.9    7037037.1 
    8100        2.025    1866.2383    42585.966   -1988875.3    124504.47   -1864370.8    7031861.3 
    8200         2.05    1862.1509    43168.423   -1988607.4    124231.78   -1864375.6    7026685.5 
    8300        2.075    1858.1409    43657.594   -1988336.4    123964.26   -1864372.2    7021509.7 
    8400          2.1    1853.9136     44099.01   -1988049.8    123682.24   -1864367.5      7016334 
    8500        2.125    1850.6477    44538.244   -1987835.9    123464.36   -1864371.5    7011158.2 
    8600         2.15    1846.4218     45066.48   -1987556.3    123182.43   -1864373.9    7005982.4 
    8700        2.175    1842.3516    45683.004   -1987283.4    122910.89   -1864372.5    7000806.6 
    8800          2.2    1837.3578     46346.12   -1986946.9    122577.74   -1864369.2    6995630.8 
    8900        2.225    1831.7691    47055.912   -1986574.8    122204.89   -1864369.9      6990455 
    9000         2.25    1823.8759    47903.994     -1986048     121678.3   -1864369.7    6985279.3 
    9100        2.275    1816.5816    48798.637   -1985560.2    121191.67   -1864368.6    6980103.5 
    9200          2.3    1808.3776    49702.759   -1985011.7    120644.35   -1864367.4    6974927.7 
    9300        2.325    1801.0538    50618.096   -1984521.5    120155.74   -1864365.8    6969751.9 
    9400         2.35    1793.2335    51530.858   -1983993.6    119634.02   -1864359.6    6964576.1 
    9500        2.375    1784.2426    52484.855   -1983390.5     119034.2   -1864356.3    6959400.3 
    9600          2.4    1776.0347    53448.756   -1982850.7    118486.61     -1864364    6954224.6 
    9700        2.425    1767.8739    54425.278   -1982318.4    117942.17   -1864376.2    6949048.8 
    9800         2.45    1758.9708    55424.472   -1981723.7    117348.21   -1864375.5      6943873 
    9900        2.475    1750.1204    56466.818   -1981130.7    116757.77     -1864373    6938697.2 
   10000          2.5    1740.7501    57542.423   -1980513.8    116132.63   -1864381.1    6933521.4 
   10100        2.525    1731.7063    58620.831   -1979914.5    115529.29   -1864385.2    6928345.6 
   10200         2.55    1723.2591    59689.445   -1979337.4    114965.74   -1864371.6    6923169.9 
   10300        2.575    1714.2978    60746.591     -1978728    114367.89   -1864360.1    6917994.1 
   10400          2.6    1705.9895     61817.39   -1978176.5    113813.61   -1864362.9    6912818.3 
   10500        2.625    1696.8581    62898.444   -1977562.8    113204.42   -1864358.3    6907642.5 
   10600         2.65    1687.6695     63962.36   -1976942.1    112591.41   -1864350.7    6902466.7 
   10700        2.675    1679.9466    64979.687     -1976437    112076.18   -1864360.8    6897290.9 
   10800          2.7    1670.2946    66016.787   -1975804.5    111432.26   -1864372.2    6892115.2 
   10900        2.725    1661.9066     67026.42   -1975241.5    110872.66   -1864368.9    6886939.4 
   11000         2.75    1654.1977    68059.699   -1974720.5    110358.37   -1864362.2    6881763.6 
   11100        2.775    1645.2445    69146.751   -1974131.4    109761.06   -1864370.3    6876587.8 
   11200          2.8    1637.7894    70240.022   -1973645.7     109263.7     -1864382      6871412 
   11300        2.825    1631.2669     71396.12   -1973212.4    108828.56   -1864383.9    6866236.2 
   11400         2.85    1625.5397    72598.357   -1972829.7    108446.47   -1864383.2    6861060.4 
   11500        2.875    1618.4056    73797.655   -1972355.2    107970.53   -1864384.6    6855884.7 
   11600          2.9    1613.0236    74916.917   -1971990.8    107611.47   -1864379.3    6850708.9 
   11700        2.925    1607.6833    75978.241   -1971629.2     107255.2     -1864374    6845533.1 
   11800         2.95    1602.6875    77062.439   -1971307.7    106921.91   -1864385.8    6840357.3 
   11900        2.975    1598.1571    78090.547   -1971022.7    106619.66   -1864403.1    6835181.5 
   12000            3    1593.0978    79057.653   -1970686.5    106282.14   -1864404.4    6830005.7 
   12100        3.025    1587.9663    80006.596   -1970328.3     105939.8   -1864388.5      6824830 
   12200         3.05    1585.4339    80937.617     -1970146    105770.85   -1864375.2    6819654.2 
   12300        3.075    1580.4498    81879.974     -1969812    105438.34   -1864373.7    6814478.4 
   12400          3.1    1576.4163    82824.621   -1969547.9    105169.25   -1864378.6    6809302.6 
   12500        3.125    1571.9819    83821.048   -1969253.2    104873.41   -1864379.8    6804126.8 
   12600         3.15    1568.4761    84787.514   -1969016.3    104639.53   -1864376.8      6798951 
   12700        3.175    1563.6148    85757.859   -1968687.3     104315.2   -1864372.1    6793775.3 
   12800          3.2    1560.1562    86707.404   -1968458.2    104084.47   -1864373.7    6788599.5 
   12900        3.225    1555.6116    87652.909   -1968155.5    103781.28   -1864374.2    6783423.7 
   13000         3.25    1551.4557    88586.442     -1967872    103504.02     -1864368    6778247.9 
   13100        3.275    1547.2847    89493.664   -1967590.2    103225.76   -1864364.4    6773072.1 
   13200          3.3     1542.906    90389.731   -1967298.8    102933.64   -1864365.2    6767896.3 
   13300        3.325    1538.5401    91268.811   -1966998.9    102642.37   -1864356.6    6762720.6 
   13400         3.35    1533.6813    92120.226   -1966665.6    102318.22   -1864347.4    6757544.8 
   13500        3.375    1529.1603    92967.271   -1966365.8     102016.6   -1864349.2      6752369 
   13600          3.4     1524.666    93833.741   -1966066.2    101716.77   -1864349.4    6747193.2 
   13700        3.425    1519.1109     94684.21   -1965685.6    101346.17   -1864339.4    6742017.4 
   13800         3.45    1514.2958    95543.562   -1965355.4    101024.93   -1864330.5    6736841.6 
   13900        3.475    1509.2331    96384.543     -1965011    100687.18   -1864323.8    6731665.9 
   14000          3.5    1503.7883     97207.52   -1964642.9    100323.93   -1864318.9    6726490.1 
   14100        3.525    1498.2195    97991.095   -1964270.3    99952.419   -1864317.9    6721314.3 
   14200         3.55    1493.1809    98721.469   -1963941.9    99616.272   -1864325.7    6716138.5 
   14300        3.575    1488.5438    99407.608   -1963636.3    99306.908   -1864329.4    6710962.7 
   14400          3.6    1484.2661    100038.24   -1963342.3    99021.526   -1864320.8    6705786.9 
   14500        3.625    1480.1152    100617.45   -1963056.7    98744.601   -1864312.1    6700611.2 
   14600         3.65    1476.3362    101171.07   -1962800.7    98492.492   -1864308.2    6695435.4 
   14700        3.675     1472.078    101657.82   -1962519.5     98208.41   -1864311.1    6690259.6 
   14800          3.7    1466.9582    102125.97   -1962188.3    97866.846   -1864321.5    6685083.8 
   14900        3.725    1462.4782    102576.28   -1961893.9    97567.967   -1864325.9      6679908 
   15000         3.75    1457.8615    103062.91   -1961572.8    97259.967   -1864312.9    6674732.2 
   15100        3.775    1452.5106     103624.6   -1961205.5    96902.987   -1864302.5    6669556.4 
   15200          3.8     1448.357    104201.78   -1960934.4    96625.885   -1864308.5    6664380.7 
   15300        3.825    1442.9489    104851.95   -1960577.8    96265.085   -1864312.7    6659204.9 
   15400         3.85    1437.5388     105479.4   -1960214.8    95904.155   -1864310.7    6654029.1 
   15500        3.875    1432.4009    106122.81   -1959872.2    95561.383   -1864310.8    6648853.3 
   15600          3.9    1425.8274    106828.31   -1959435.7    95122.838   -1864312.9    6643677.5 
   15700        3.925    1420.4824    107500.13   -1959083.3     94766.25     -1864317    6638501.7 
   15800         3.95     1414.613    108176.67   -1958705.9    94374.683   -1864331.2      6633326 
   15900        3.975    1407.4524    108943.69   -1958243.7    93896.967   -1864346.8    6628150.2 
   16000            4    1400.5796    109748.92   -1957783.9    93438.455   -1864345.4    6622974.4 
   16100        4.025    1393.0135    110614.11   -1957268.8    92933.688   -1864335.1    6617798.6 
   16200         4.05    1386.3912    111469.93   -1956828.6     92491.89   -1864336.7    6612622.8 
   16300        4.075    1377.0032    112415.47   -1956214.3    91865.577   -1864348.7      6607447 
   16400          4.1    1369.1864    113375.09   -1955695.6    91344.084   -1864351.5    6602271.3 
   16500        4.125      1362.09    114373.81   -1955214.2    90870.654   -1864343.6    6597095.5 
   16600         4.15     1353.737    115404.66   -1954659.7    90313.393   -1864346.3    6591919.7 
   16700        4.175    1346.3869    116409.54     -1954181    89823.034     -1864358    6586743.9 
   16800          4.2     1337.356    117482.83   -1953579.4     89220.55   -1864358.8    6581568.1 
   16900        4.225    1329.8368    118551.67   -1953068.1    88718.911   -1864349.2    6576392.3 
   17000         4.25    1321.2437    119622.79   -1952491.1    88145.628   -1864345.5    6571216.6 
   17100        4.275    1312.4444    120718.83   -1951909.9    87558.594   -1864351.3    6566040.8 
   17200          4.3    1304.0353    121865.83   -1951352.9    86997.586   -1864355.3      6560865 
   17300        4.325    1295.8237    123074.04   -1950804.1    86449.759   -1864354.4    6555689.2 
   17400         4.35    1288.0378     124323.5   -1950285.3    85930.327     -1864355    6550513.4 
   17500        4.375    1280.2814     125589.2   -1949768.6    85412.863   -1864355.8    6545337.6 
   17600          4.4    1272.2896     126877.3   -1949228.1    84879.698   -1864348.4    6540161.9 
   17700        4.425    1266.0903    128143.35   -1948804.6    84466.118   -1864338.5    6534986.1 
   17800         4.45    1258.9395    129424.81     -1948321     83989.06   -1864331.9    6529810.3 
   17900        4.475    1252.7208    130668.89   -1947901.2    83574.182   -1864327.1    6524634.5 
   18000          4.5     1245.964    131928.95   -1947452.2    83123.411   -1864328.7    6519458.7 
   18100        4.525    1238.0404    133170.67     -1946928    82594.794   -1864333.2    6514282.9 
   18200         4.55     1232.294    134326.04   -1946544.9    82211.428   -1864333.5    6509107.1 
   18300        4.575    1225.4723    135493.94   -1946087.2     81756.32   -1864330.9    6503931.4 
   18400          4.6    1219.0764    136648.24   -1945664.1    81329.628   -1864334.4    6498755.6 
   18500        4.625     1211.735    137828.53   -1945180.1     80839.85   -1864340.2    6493579.8 
   18600         4.65    1206.3442     138981.6   -1944818.1     80480.21   -1864337.9      6488404 
   18700        4.675    1199.6748    140216.25   -1944362.8    80035.264   -1864327.5    6483228.2 
   18800          4.7    1193.1457    141473.46   -1943924.3    79599.684   -1864324.6    6478052.4 
   18900        4.725    1186.2509    142700.03   -1943472.8    79139.701   -1864333.1    6472876.7 
   19000         4.75    1179.8278    143932.47   -1943046.7    78711.192   -1864335.5    6467700.9 
   19100        4.775    1173.8411    145162.99   -1942631.5    78311.792   -1864319.7    6462525.1 
   19200          4.8    1167.5261    146392.17     -1942193    77890.495   -1864302.5    6457349.3 
   19300        4.825    1161.2795    147550.58   -1941783.2    77473.753   -1864309.4    6452173.5 
   19400         4.85    1154.3009    148755.28   -1941329.7    77008.187   -1864321.5    6446997.7 
   19500        4.875    1148.5488    149948.64   -1940943.9    76624.438   -1864319.4      6441822 
   19600          4.9    1141.7914    151165.02     -1940487    76173.627   -1864313.4    6436646.2 
   19700        4.925    1134.5128    152352.05   -1940004.4    75688.039   -1864316.4    6431470.4 
   19800         4.95    1127.7651    153532.26   -1939554.4    75237.871   -1864316.5    6426294.6 
   19900        4.975    1122.1257    154730.58     -1939168    74861.643   -1864306.4    6421118.8 
   20000            5    1114.5252    155907.24     -1938657    74354.587   -1864302.4      6415943 
   20100        5.025    1108.7911    157056.91   -1938284.9    73972.038   -1864312.9    6410767.3 
   20200         5.05    1101.2619    158187.84   -1937784.2    73469.731   -1864314.4    6405591.5 
   20300        5.075    1094.6791    159286.77   -1937336.7    73030.566   -1864306.2    6400415.7 
   20400          5.1    1088.8289    160318.45   -1936955.6    72640.277   -1864315.3    6395239.9 
   20500        5.125    1082.3464    161314.18   -1936541.7    72207.805   -1864333.9    6390064.1 
   20600         5.15    1077.4093    162292.17   -1936209.9    71878.426   -1864331.5    6384888.3 
   20700        5.175     1072.248    163270.62   -1935846.5    71534.097   -1864312.4    6379712.6 
   20800          5.2    1067.8276     164191.4   -1935537.7    71239.193   -1864298.6    6374536.8 
   20900        5.225    1061.8801    165137.37   -1935137.3    70842.413   -1864294.8      6369361 
   21000         5.25    1057.7807    165988.25   -1934861.5    70568.921   -1864292.6    6364185.2 
   21100        5.275    1054.1854    166786.53   -1934619.1    70329.069   -1864290.1    6359009.4 
   21200          5.3     1049.575    167585.94   -1934315.2    70021.486   -1864293.7    6353833.6 
   21300        5.325    1045.4519     168329.8     -1934043    69746.417   -1864296.6    6348657.9 
   21400         5.35    1042.2434    169022.87     -1933825    69532.366   -1864292.6    6343482.1 
   21500        5.375    1038.5157    169754.49   -1933573.1    69283.677   -1864289.4    6338306.3 
   21600          5.4    1033.8226    170522.42   -1933267.4    68970.581   -1864296.8    6333130.5 
   21700        5.425    1030.6015    171310.11     -1933065    68755.688   -1864309.4    6327954.7 
   21800         5.45    1027.2229    172133.28   -1932844.3    68530.288     -1864314    6322778.9 
   21900        5.475     1024.057    172943.57   -1932630.8    68319.074   -1864311.7    6317603.1 
   22000          5.5    1020.0148    173746.15   -1932354.4    68049.405     -1864305    6312427.4 
   22100        5.525    1016.7388     174518.6   -1932123.9    67830.847     -1864293    6307251.6 
   22200         5.55    1012.0967    175313.71   -1931802.7    67521.158   -1864281.5    6302075.8 
   22300        5.575    1009.5417    176057.37   -1931634.2    67350.702   -1864283.5      6296900 
   22400          5.6    1003.5106    176855.01     -1931236    66948.343   -1864287.7    6291724.2 
   22500        5.625    999.46577    177651.54   -1930964.9    66678.493   -1864286.4    6286548.4 
   22600         5.65     994.3653    178486.55   -1930620.6    66338.219   -1864282.4    6281372.7 
   22700        5.675     988.2384    179338.57   -1930210.9    65929.469   -1864281.4    6276196.9 
   22800          5.7    982.55848    180137.67   -1929835.4    65550.538   -1864284.9    6271021.1 
   22900        5.725    976.18623    180911.21   -1929409.7    65125.419   -1864284.3    6265845.3 
   23000         5.75    970.36741    181681.12   -1929014.7    64737.221   -1864277.4    6260669.5 
   23100        5.775    964.38814    182417.31   -1928613.4     64338.32   -1864275.1    6255493.7 
   23200          5.8    957.37815    183190.64     -1928154    63870.654   -1864283.4      6250318 
   23300        5.825    950.99513    183968.55   -1927729.7    63444.816   -1864284.9    6245142.2 
   23400         5.85    946.21312    184740.28   -1927398.7    63125.789   -1864272.9    6239966.4 
   23500        5.875     938.7985    185579.55   -1926899.2    62631.129   -1864268.1    6234790.6 
   23600          5.9    932.51544    186426.83     -1926485     62211.96   -1864273.1    6229614.8 
   23700        5.925    926.81752    187321.27   -1926104.1    61831.828   -1864272.3      6224439 
   23800         5.95    920.31028    188253.67   -1925660.3    61397.703   -1864262.6    6219263.3 
   23900        5.975    914.65608    189186.93   -1925279.3    61020.488   -1864258.8    6214087.5 
   24000            6    907.55569    190144.47   -1924807.1    60546.792   -1864260.3    6208911.7 
   24100        6.025    901.68121    191064.91   -1924411.1    60154.881   -1864256.2    6203735.9 
   24200         6.05    894.34435     192073.6   -1923918.3    59665.409   -1864252.9    6198560.1 
   24300        6.075    888.37651    193091.27     -1923530    59267.269   -1864262.7    6193384.3 
   24400          6.1    880.41509    194136.82   -1923004.4     58736.13   -1864268.3    6188208.6 
   24500        6.125    873.70914    195159.01   -1922547.1    58288.749   -1864258.4    6183032.8 
   24600         6.15     867.2888    196137.42   -1922111.7    57860.421   -1864251.3      6177857 
   24700        6.175    860.74037    197129.76   -1921674.5    57423.548     -1864251    6172681.2 
   24800          6.2    852.50862    198135.32   -1921127.1    56874.374   -1864252.8    6167505.4 
   24900        6.225    845.20912    199132.34   -1920644.2    56387.394   -1864256.8    6162329.6 
   25000         6.25    838.22502    200123.74   -1920182.5    55921.456   -1864261.1    6157153.8 
   25100        6.275    831.36181    201124.97   -1919723.8    55463.583   -1864260.2    6151978.1 
   25200          6.3    824.42232       202172   -1919257.5    55000.621   -1864256.9    6146802.3 
   25300        6.325    817.26821    203268.39   -1918779.2    54523.341   -1864255.9    6141626.5 
   25400         6.35    810.58507    204437.55   -1918330.3    54077.481   -1864252.8    6136450.7 
   25500        6.375    803.26439    205625.74   -1917836.4    53589.088   -1864247.3    6131274.9 
   25600          6.4    796.89872    206791.61   -1917416.7    53164.408   -1864252.3    6126099.1 
   25700        6.425    788.66155    207996.55   -1916878.8    52614.872   -1864263.9    6120923.4 
   25800         6.45    780.90607     209300.9   -1916365.2    52097.472   -1864267.7    6115747.6 
   25900        6.475    772.67638    210626.28   -1915817.8    51548.435   -1864269.4    6110571.8 
   26000          6.5    765.43485    211972.08   -1915342.7    51065.323   -1864277.4      6105396 
   26100        6.525    757.95296    213350.79   -1914847.6    50566.175   -1864281.4    6100220.2 
   26200         6.55    750.86366    214736.07   -1914371.5    50093.219   -1864278.3    6095044.4 
   26300        6.575    742.82962    216095.17   -1913833.7    49557.235   -1864276.4    6089868.7 
   26400          6.6    736.37644    217413.38   -1913403.1    49126.717   -1864276.3    6084692.9 
   26500        6.625    728.94378    218754.82   -1912905.5    48630.853   -1864274.6    6079517.1 
   26600         6.65    720.56554    220105.57   -1912349.5    48071.906   -1864277.6    6074341.3 
   26700        6.675    713.26615    221472.52   -1911863.1    47584.933   -1864278.1    6069165.5 
   26800          6.7    706.35445    222816.37   -1911392.3    47123.825   -1864268.4    6063989.7 
   26900        6.725    699.59262    224167.44   -1910937.6    46672.716   -1864264.9      6058814 
   27000         6.75    691.98757    225543.72   -1910438.9    46165.351   -1864273.5    6053638.2 
   27100        6.775    685.53723    226956.42   -1910009.2    45735.023   -1864274.2    6048462.4 
   27200          6.8    680.38705    228386.53   -1909646.6    45391.433   -1864255.2    6043286.6 
   27300        6.825    674.31237    229849.27   -1909209.3    44986.166   -1864223.1    6038110.8 
   27400         6.85    669.31464     231275.9   -1908831.5    44652.746   -1864178.7      6032935 
   27500        6.875    663.19064    232701.99   -1908346.7    44244.189   -1864102.6    6027759.3 
   27600          6.9    660.73836    234040.55   -1908068.7    44080.587   -1863988.1    6022583.5 
   27700        6.925    656.90472    235435.28     -1907659    43824.829   -1863834.2    6017407.7 
   27800         6.95    655.10326    236846.68   -1907316.2    43704.647   -1863611.5    6012231.9 
   27900        6.975    652.42182    238223.29   -1906826.7    43525.757   -1863300.9    6007056.1 
   28000            7    653.32429    239572.67   -1906519.5    43585.964   -1862933.5    6001880.3 
   28100        7.025     652.4915    240979.98   -1906067.5    43530.406   -1862537.1    5996704.5 
   28200         7.05    652.97746    242355.52   -1905657.5    43562.825   -1862094.7    5991528.8 
   28300        7.075    654.77463     243689.1   -1905290.3    43682.723   -1861607.5      5986353 
   28400          7.1    655.58785    244975.98   -1904868.5    43736.976   -1861131.5    5981177.2 
   28500        7.125    656.39563    246205.14   -1904467.1    43790.866   -1860676.3    5976001.4 
   28600         7.15    656.20474    247467.65     -1903987    43778.131   -1860208.9    5970825.6 
   28700        7.175    657.14039       248710   -1903546.7    43840.552   -1859706.2    5965649.8 
   28800          7.2    659.53884    249937.93   -1903149.1    44000.562   -1859148.5    5960474.1 
   28900        7.225    660.68005    251198.93   -1902583.9    44076.697   -1858507.2    5955298.3 
   29000         7.25    663.67111    252443.55   -1902098.6    44276.243   -1857822.3    5950122.5 
   29100        7.275    667.25943    253664.95     -1901644    44515.635   -1857128.4    5944946.7 
   29200          7.3    670.69068    254848.96   -1901174.2    44744.548   -1856429.6    5939770.9 
   29300        7.325    673.44223    256047.92   -1900638.9    44928.115   -1855710.8    5934595.1 
   29400         7.35     676.9576    257189.74   -1900188.8     45162.64   -1855026.1    5929419.4 
   29500        7.375    680.08417     258294.7   -1899697.8    45371.227   -1854326.6    5924243.6 
   29600          7.4    682.95853    259385.36   -1899181.1    45562.987   -1853618.2    5919067.8 
   29700        7.425    687.46663    260433.98   -1898753.6    45863.741   -1852889.9      5913892 
   29800         7.45    691.42943    261493.43   -1898274.8    46128.115   -1852146.7    5908716.2 
   29900        7.475    695.76456    262493.85   -1897808.6     46417.33   -1851391.2    5903540.4 
   30000          7.5    699.09723    263466.16     -1897287    46639.666   -1850647.3    5898364.7 
   30100        7.525    703.48726    264417.66   -1896836.9    46932.543   -1849904.4    5893188.9 
   30200         7.55    706.35545    265359.84   -1896276.8    47123.892   -1849152.9    5888013.1 
   30300        7.575     711.1866    266285.26   -1895843.8    47446.198   -1848397.6    5882837.3 
   30400          7.6    714.36246    267211.81     -1895298    47658.073   -1847639.9    5877661.5 
   30500        7.625    717.14003    268108.94     -1894716    47843.376   -1846872.6    5872485.7 
   30600         7.65      720.145    269004.21   -1894144.9     48043.85   -1846101.1      5867310 
   30700        7.675      720.436    269949.12   -1893413.4    48063.264   -1845350.1    5862134.2 
   30800          7.7    722.92198    270829.95   -1892826.3    48229.114   -1844597.2    5856958.4 
   30900        7.725    722.56442    271685.83   -1892039.3    48205.259     -1843834    5851782.6 
   31000         7.75    722.20018    272592.65   -1891268.1    48180.959   -1843087.1    5846606.8 
   31100        7.775    721.55166    273532.12   -1890470.9    48137.694   -1842333.2      5841431 
   31200          7.8    720.10645    274531.79   -1889618.3    48041.278     -1841577    5836255.3 
   31300        7.825    717.88427    275563.38   -1888720.6    47893.027   -1840827.6    5831079.5 
   31400         7.85    715.23933    276676.36   -1887773.2    47716.573   -1840056.6    5825903.7 
   31500        7.875    713.34788    277869.05   -1886884.6    47590.386   -1839294.3    5820727.9 
   31600          7.9    710.55026    279149.57   -1885952.2    47403.745   -1838548.5    5815552.1 
   31700        7.925    707.94772    280489.63   -1885028.2    47230.119     -1837798    5810376.3 
   31800         7.95    702.57508     281925.3   -1883902.7    46871.688     -1837031    5805200.5 
   31900        7.975    699.67327    283344.52   -1882946.2    46678.096   -1836268.1    5800024.8 
   32000            8    694.40188    284876.22   -1881810.1     46326.42   -1835483.6      5794849 
   32100        8.025    692.13589    286404.56   -1880857.4    46175.246   -1834682.2    5789673.2 
   32200         8.05    686.77473    288059.08   -1879710.4    45817.581   -1833892.8    5784497.4 
   32300        8.075    683.14546    289706.49   -1878665.8    45575.458   -1833090.4    5779321.6 
   32400          8.1    677.88519    291430.83   -1877501.9    45224.523   -1832277.4    5774145.8 
   32500        8.125    674.16039    293197.22   -1876406.4    44976.027   -1831430.4    5768970.1 
   32600         8.15    669.73765    295099.89   -1875224.2    44680.967   -1830543.3    5763794.3 
   32700        8.175    666.13962    297095.05   -1874022.4    44440.928   -1829581.5    5758618.5 
   32800          8.2    663.25035    299175.67   -1872733.3    44248.172   -1828485.1    5753442.7 
   32900        8.225    660.85237    301444.43   -1871372.2    44088.193     -1827284    5748266.9 
   33000         8.25    662.47264    303937.78   -1870023.8    44196.289   -1825827.5    5743091.1 
   33100        8.275    664.82825    306623.47   -1868564.4    44353.441   -1824210.9    5737915.4 
   33200          8.3    667.11358    309480.34   -1867006.9    44505.905     -1822501    5732739.6 
   33300        8.325     668.2871    312475.77   -1865261.5    44584.195   -1820677.3    5727563.8 
   33400         8.35     673.5185    315550.05   -1863633.1    44933.203   -1818699.9      5722388 
   33500        8.375    676.97342    318749.19   -1861747.8    45163.695   -1816584.1    5717212.2 
   33600          8.4    683.04769    321992.07   -1859937.5    45568.935   -1814368.6    5712036.4 
   33700        8.425    689.72303    325286.46   -1858115.2    46014.275   -1812100.9    5706860.7 
   33800         8.45    698.83181    328650.14   -1856332.9    46621.959   -1809710.9    5701684.9 
   33900        8.475     708.4238    332044.68   -1854533.4     47261.88   -1807271.6    5696509.1 
   34000          8.5    719.58174    335459.36   -1852763.8    48006.272   -1804757.6    5691333.3 
   34100        8.525    731.09036    338903.23   -1850994.6     48774.06   -1802220.5    5686157.5 
   34200         8.55    743.43578    342335.73   -1849269.2    49597.674   -1799671.6    5680981.7 
   34300        8.575    754.50141    345827.85   -1847494.3    50335.908   -1797158.3      5675806 
   34400          8.6    763.12452    349338.69   -1845638.9    50911.191   -1794727.7    5670630.2 
   34500        8.625    775.60574    352797.96   -1843990.1    51743.865   -1792246.2    5665454.4 
   34600         8.65    784.24087    356309.18   -1842094.7    52319.951   -1789774.8    5660278.6 
   34700        8.675     793.6781    359854.22     -1840297    52949.547   -1787347.5    5655102.8 
   34800          8.7    802.15152    363447.39   -1838417.9    53514.844   -1784903.1      5649927 
   34900        8.725    812.05128    366967.18   -1836634.6    54175.298   -1782459.3    5644751.2 
   35000         8.75    819.12723    370503.42   -1834686.1    54647.364   -1780038.7    5639575.5 
   35100        8.775    828.47637     374055.7   -1832869.4    55271.083   -1777598.3    5634399.7 
   35200          8.8    836.75164    377499.38   -1830946.4    55823.161   -1775123.2    5629223.9 
   35300        8.825    846.29981    380869.14   -1829093.5    56460.158   -1772633.4    5624048.1 
   35400         8.85    856.31225     384102.4   -1827265.5     57128.13   -1770137.4    5618872.3 
   35500        8.875    867.25898    387241.09     -1825478    57858.431   -1767619.5    5613696.5 
   35600          8.9    879.18453    390397.48   -1823747.1    58654.034   -1765093.1    5608520.8 
   35700        8.925    890.56659    393529.07   -1821986.2    59413.379   -1762572.8      5603345 
   35800         8.95    903.02587     396476.5   -1820291.5    60244.589   -1760046.9    5598169.2 
   35900        8.975    918.32504    399209.39   -1818705.4     61265.26   -1757440.2    5592993.4 
   36000            9    935.09616    401786.79   -1817158.1     62384.13     -1754774    5587817.6 
   36100        9.025    953.61957    404330.01   -1815691.5    63619.904   -1752071.6    5582641.8 
   36200         9.05     973.7291     406784.5   -1814230.1    64961.494   -1749268.6    5577466.1 
   36300        9.075    997.20787    409128.61   -1812880.8    66527.859   -1746352.9    5572290.3 
   36400          9.1    1021.7756    411486.79   -1811618.9    68166.871     -1743452    5567114.5 
   36500        9.125     1045.541     413765.7   -1810279.7    69752.365   -1740527.4    5561938.7 
   36600         9.15    1072.0828    416046.26   -1809037.3    71523.077   -1737514.2    5556762.9 
   36700        9.175    1098.4412    418290.71     -1807760    73281.555   -1734478.4    5551587.1 
   36800          9.2    1123.9845    420564.95   -1806491.4    74985.649   -1731505.7    5546411.4 
   36900        9.225    1148.8012    422848.98   -1805202.1    76641.278   -1728560.9    5541235.6 
   37000         9.25    1174.2568    425110.47   -1804003.3    78339.524   -1725663.8    5536059.8 
   37100        9.275    1199.4195    427229.67   -1802823.2    80018.233     -1722805      5530884 
   37200          9.3     1224.724    429329.64   -1801713.1    81706.398   -1720006.7    5525708.2 
   37300        9.325    1249.3109    431425.57     -1800554    83346.695   -1717207.3    5520532.4 
   37400         9.35     1274.611    433625.64   -1799419.6    85034.572     -1714385    5515356.7 
   37500        9.375    1301.7356    435830.78   -1798409.7    86844.163   -1711565.5    5510180.9 
   37600          9.4    1327.7114    437944.38   -1797335.3    88577.116   -1708758.2    5505005.1 
   37700        9.425    1355.4327     440061.3   -1796425.5    90426.516     -1705999    5499829.3 
   37800         9.45    1378.9101    442254.89   -1795279.9    91992.793   -1703287.1    5494653.5 
   37900        9.475    1405.2321    444438.88   -1794341.2    93748.845   -1700592.3    5489477.7 
   38000          9.5    1431.1321    446665.16   -1793357.5    95476.736   -1697880.8      5484302 
   38100        9.525    1456.6467       448879   -1792331.9    97178.926     -1695153    5479126.2 
   38200         9.55    1482.9789     451123.3   -1791350.7    98935.656     -1692415    5473950.4 
   38300        9.575     1508.401    453537.94   -1790330.5    100631.67   -1689698.8    5468774.6 
   38400          9.6    1531.6543    455955.55   -1789285.6    102182.99   -1687102.6    5463598.8 
   38500        9.625    1555.3053    458468.23   -1788326.3    103760.84   -1684565.5      5458423 
   38600         9.65    1573.1807    461026.92   -1787001.5    104953.39   -1682048.1    5453247.2 
   38700        9.675    1592.3035    463695.56   -1785813.1    106229.15     -1679584    5448071.5 
   38800          9.7    1609.4042    466582.64   -1784508.9    107370.01   -1677138.8    5442895.7 
   38900        9.725     1625.791    469498.56   -1783178.8    108463.24   -1674715.5    5437719.9 
   39000         9.75    1640.8993    472437.81     -1781844    109471.17   -1672372.8    5432544.1 
   39100        9.775    1657.0963    475394.32     -1780608    110551.74   -1670056.2    5427368.3 
   39200          9.8    1672.4855    478345.53     -1779321    111578.42   -1667742.6    5422192.5 
   39300        9.825    1686.5572    481266.67   -1777964.3     112517.2   -1665447.1    5417016.8 
   39400         9.85    1701.5706    484265.46   -1776654.2    113518.81   -1663135.4      5411841 
   39500        9.875    1714.1606    487353.52   -1775203.8    114358.74     -1660845    5406665.2 
   39600          9.9    1727.0953    490464.18     -1773788    115221.66   -1658566.3    5401489.4 
   39700        9.925    1738.1707     493590.1     -1772249    115960.55   -1656288.4    5396313.6 
   39800         9.95     1748.085    496692.19   -1770597.5    116621.98   -1653975.5    5391137.8 
   39900        9.975    1760.2034    499883.57   -1769035.1    117430.44   -1651604.6    5385962.1 
   40000           10     1768.701    503071.36   -1767228.6    117997.35   -1649231.3    5380786.3 
   40100       10.025    1778.6953    506370.59   -1765513.4    118664.11   -1646849.3    5375610.5 
   40200        10.05    1787.7124    509647.02   -1763720.6    119265.68   -1644454.9    5370434.7 
   40300       10.075    1796.4547    512968.85   -1761949.5    119848.92   -1642100.6    5365258.9 
   40400         10.1    1803.4107    516401.33   -1760129.9    120312.99   -1639816.9    5360083.1 
   40500       10.125    1808.5183    519880.19   -1758263.7    120653.73     -1637610    5354907.4 
   40600        10.15    1811.5163    523426.37   -1756303.4    120853.74   -1635449.7    5349731.6 
   40700       10.175    1815.6563    526908.96   -1754439.5    121129.94   -1633309.6    5344555.8 
   40800         10.2     1816.259    530558.62   -1752361.2    121170.15   -1631191.1      5339380 
   40900       10.225    1818.0826    534196.02   -1750391.6    121291.81   -1629099.8    5334204.2 
   41000        10.25    1820.2627    537821.17   -1748466.1    121437.25   -1627028.9    5329028.4 
   41100       10.275     1822.041    541373.05     -1746545    121555.89   -1624989.1    5323852.7 
   41200         10.3    1824.7952    544763.55   -1744706.6    121739.63     -1622967    5318676.9 
   41300       10.325     1829.641    547978.05     -1743009    122062.91   -1620946.1    5313501.1 
   41400        10.35     1831.426     551190.2     -1741111       122182     -1618929    5308325.3 
   41500       10.375    1834.5676    554363.37   -1739334.2    122391.59   -1616942.6    5303149.5 
   41600         10.4    1838.3612    557481.73   -1737644.7    122644.67     -1615000    5297973.7 
   41700       10.425    1839.3263    560558.98   -1735809.3    122709.06   -1613100.2    5292797.9 
   41800        10.45     1843.221    563455.82   -1734197.4    122968.89   -1611228.6    5287622.2 
   41900       10.475    1845.9595     566366.9   -1732520.5    123151.59   -1609368.9    5282446.4 
   42000         10.5    1849.3259    569222.15   -1730881.9    123376.18   -1607505.7    5277270.6 
   42100       10.525    1855.2139    572045.48   -1729386.9    123768.99   -1605617.9    5272094.8 
   42200        10.55    1862.1292     574734.2   -1727957.6    124230.33   -1603727.3      5266919 
   42300       10.575     1868.241    577310.92   -1726513.2    124638.08   -1601875.1    5261743.2 
   42400         10.6    1875.9264    579920.47   -1725241.2    125150.81   -1600090.4    5256567.5 
   42500       10.625    1882.9224    582506.42   -1723945.4    125617.54   -1598327.9    5251391.7 
   42600        10.65    1891.4647    585052.64   -1722702.3    126187.43   -1596514.9    5246215.9 
   42700       10.675    1901.6802     587616.1   -1721549.1    126868.94   -1594680.1    5241040.1 
   42800         10.7    1910.3339    589989.92   -1720306.7    127446.27   -1592860.5    5235864.3 
   42900       10.725    1922.2302    592064.81   -1719296.2    128239.92   -1591056.3    5230688.5 
   43000        10.75    1933.5176     594148.4   -1718232.3    128992.95   -1589239.3    5225512.8 
   43100       10.775     1944.261    596595.65   -1717064.6    129709.69   -1587354.9      5220337 
   43200         10.8    1956.9509    599283.19   -1715954.7    130556.29   -1585398.4    5215161.2 
   43300       10.825     1970.284    601877.18   -1714868.7    131445.79   -1583422.9    5209985.4 
   43400        10.85    1985.0921    604406.69   -1713891.8     132433.7   -1581458.1    5204809.6 
   43500       10.875    1999.2555    607146.79   -1712847.6     133378.6     -1579469    5199633.8 
   43600         10.9    2016.0431    609826.65   -1711883.6    134498.57   -1577385.1    5194458.1 
   43700       10.925    2031.8661    612503.57   -1710788.3    135554.19   -1575234.1    5189282.3 
   43800        10.95    2050.9509    615223.33   -1709831.7    136827.41   -1573004.3    5184106.5 
   43900       10.975    2070.3858    618047.99     -1708882    138123.99     -1570758    5178930.7 
   44000           11    2088.7885    620954.52   -1707846.6    139351.71   -1568494.9    5173754.9 
   44100       11.025    2106.8798    623979.46   -1706820.7    140558.66   -1566262.1    5168579.1 
   44200        11.05    2123.6302    626984.98   -1705720.2    141676.15     -1564044    5163403.4 
   44300       11.075    2140.1398    629916.26   -1704622.1    142777.57   -1561844.5    5158227.6 
   44400         11.1    2156.6519     632876.1   -1703502.6    143879.16   -1559623.4    5153051.8 
   44500       11.125    2170.8726    635997.91   -1702219.7    144827.89   -1557391.8      5147876 
   44600        11.15    2183.9203    639178.49     -1700869    145698.35   -1555170.7    5142700.2 
   44700       11.175    2195.3963    642555.13   -1699439.6    146463.97   -1552975.6    5137524.4 
   44800         11.2    2204.4489    646112.75   -1697888.1     147067.9   -1550820.2    5132348.7 
   44900       11.225    2212.6368     649645.5   -1696328.2    147614.15   -1548714.1    5127172.9 
   45000        11.25     2221.839    653230.15   -1694836.7    148228.06   -1546608.6    5121997.1 
   45100       11.275    2230.5421    656846.91   -1693269.4    148808.69   -1544460.7    5116821.3 
   45200         11.3    2238.4308    660479.16   -1691628.9    149334.97   -1542293.9    5111645.5 
   45300       11.325    2243.1634    664275.06   -1689762.2     149650.7   -1540111.5    5106469.7 
   45400        11.35    2249.8049    668172.13   -1688030.3    150093.79   -1537936.5    5101293.9 
   45500       11.375    2253.9412    672000.88   -1686122.7    150369.73     -1535753    5096118.2 
   45600         11.4    2257.1422     675790.7   -1684086.3    150583.29     -1533503    5090942.4 
   45700       11.425     2265.687       679379   -1682347.9    151153.34   -1531194.5    5085766.6 
   45800        11.45     2273.193    682699.87     -1680501     151654.1   -1528846.9    5080590.8 
   45900       11.475    2281.4906    685930.29     -1678652    152207.67   -1526444.3      5075415 
   46000         11.5    2290.7858    689342.45   -1676844.2    152827.79   -1524016.4    5070239.2 
   46100       11.525    2300.0476    693023.94   -1675007.9    153445.68   -1521562.2    5065063.5 
   46200        11.55    2307.4705    696810.04   -1673009.6    153940.89   -1519068.7    5059887.7 
   46300       11.575    2317.4682    700600.06   -1671191.1    154607.89   -1516583.2    5054711.9 
   46400         11.6    2323.6532    704265.45   -1669127.8    155020.51   -1514107.2    5049536.1 
   46500       11.625     2330.313    707890.94   -1667108.2    155464.81   -1511643.4    5044360.3 
   46600        11.65    2338.4215    711603.54   -1665160.4    156005.77   -1509154.6    5039184.5 
   46700       11.675    2347.8458    715274.74     -1663247     156634.5   -1506612.5    5034008.8 
   46800         11.7    2358.9055    718912.01   -1661379.7    157372.34   -1504007.3      5028833 
   46900       11.725    2372.0476    722377.75   -1659602.9     158249.1   -1501353.8    5023657.2 
   47000        11.75    2389.2075    725535.71   -1658068.1    159393.91   -1498674.2    5018481.4 
   47100       11.775    2406.5194    728565.35     -1656561    160548.86   -1496012.1    5013305.6 
   47200         11.8    2422.7297    731777.55   -1654978.3    161630.31     -1493348    5008129.8 
   47300       11.825    2414.6825    735224.47   -1651765.7    161093.45   -1490672.3    5002954.1 
   47400        11.85    2414.5361    738944.13     -1649100    161083.69   -1488016.4    4997778.3 
   47500       11.875    2403.3491    743047.91   -1645733.3    160337.35     -1485396    4992602.5 
   47600         11.9    2394.7371    747521.93   -1642599.6    159762.81   -1482836.8    4987426.7 
   47700       11.925    2383.1858    751191.34   -1639311.5    158992.17   -1480319.4    4982250.9 
   47800        11.95    2374.0845    755367.31   -1636245.2    158384.99   -1477860.2    4977075.1 
   47900       11.975    2362.2624    759638.79   -1633031.6    157596.29   -1475435.4    4971899.4 
   48000           12    2351.7549    763612.67   -1629939.2    156895.29   -1473043.9    4966723.6 
   48100       12.025    2340.2656    767364.88   -1626722.8    156128.79     -1470594    4961547.8 
   48200        12.05    2325.5696    771347.64   -1623341.6    155148.36   -1468193.2      4956372 
   48300       12.075     2313.469    775334.96     -1620188    154341.08     -1465847    4951196.2 
   48400         12.1    2296.7163     779112.6   -1616735.2    153223.44   -1463511.7    4946020.4 
   48500       12.125    2282.4098    783393.57   -1613454.9    152268.99   -1461185.9    4940844.6 
   48600        12.15    2266.9394    787733.57     -1610118     151236.9   -1458881.1    4935668.9 
   48700       12.175    2251.0231     791930.6   -1606739.1    150175.06     -1456564    4930493.1 
   48800         12.2     2234.776    795915.43   -1603288.4    149091.15   -1454197.3    4925317.3 
   48900       12.225    2217.8347    799971.09   -1599773.7    147960.92   -1451812.8    4920141.5 
   49000        12.25    2199.7455    803691.91   -1596191.8    146754.12   -1449437.7    4914965.7 
   49100       12.275    2183.5898    806674.83   -1592748.2     145676.3   -1447071.9    4909789.9 
   49200         12.3    2167.4175    808986.56   -1589321.2    144597.38   -1444723.9    4904614.2 
   49300       12.325    2146.3767    811054.13     -1585586    143193.66   -1442392.4    4899438.4 
   49400        12.35    2127.8002    813256.61   -1582014.8    141954.35   -1440060.5    4894262.6 
   49500       12.375    2110.5694    816032.84   -1578549.2    140804.81   -1437744.4    4889086.8 
   49600         12.4    2089.6913    819120.95   -1574824.2    139411.95   -1435412.3      4883911 
   49700       12.425    2073.1042    822286.48   -1571347.2    138305.35   -1433041.9    4878735.2 
   49800        12.45    2054.7032    825292.46   -1567727.8    137077.74     -1430650    4873559.5 
   49900       12.475    2036.6447    828317.97   -1564133.2    135872.99   -1428260.2    4868383.7 
   50000         12.5    2019.4669    831438.13   -1560612.8    134726.99   -1425885.9    4863207.9 
Loop time of 422.965 on 24 procs for 50000 steps with 516124 atoms

Performance: 2.553 ns/day, 9.399 hours/ns, 118.213 timesteps/s
99.8% CPU use with 24 MPI tasks x 1 OpenMP threads

MPI task timing breakdown:
Section |  min time  |  avg time  |  max time  |%varavg| %total
---------------------------------------------------------------
Pair    | 165.34     | 200.4      | 225.23     | 119.8 | 47.38
Neigh   | 0.027302   | 0.040515   | 0.051522   |   3.3 |  0.01
Comm    | 35.835     | 40.854     | 50.14      |  53.4 |  9.66
Output  | 17.373     | 17.374     | 17.385     |   0.1 |  4.11
Modify  | 122.62     | 148.53     | 179.28     | 126.8 | 35.12
Other   |            | 15.76      |            |       |  3.73

Nlocal:        21505.2 ave       24517 max       18317 min
Histogram: 2 0 4 0 8 2 0 4 0 4
Nghost:        25241.3 ave       29726 max       23749 min
Histogram: 8 5 7 0 0 2 0 0 0 2
Neighs:         0.00000 ave           0 max           0 min
Histogram: 24 0 0 0 0 0 0 0 0 0

Total # of neighbors = 0
Ave neighs/atom = 0.0000000
Neighbor list builds = 447
Dangerous builds = 0


---------------------------------------------------------------------
      Device Time Info (average): 
---------------------------------------------------------------------
Data Transfer:   24.8541 s.
Neighbor copy:   0.0171 s.
Neighbor build:  1.4452 s.
Force calc:      126.6040 s.
Device Overhead: 66.7059 s.
Average split:   1.0000.
Lanes / atom:    4.
Vector width:    32.
Max Mem / Proc:  96.88 MB.
CPU Neighbor:    0.2626 s.
CPU Cast/Pack:   13.1698 s.
CPU Driver_Time: 0.8538 s.
CPU Idle_Time:   66.5917 s.
---------------------------------------------------------------------

Total wall time: 0:07:08
