LAMMPS (24 Mar 2022)
OMP_NUM_THREADS environment is not set. Defaulting to 1 thread. (src/comm.cpp:98)
  using 1 OpenMP thread(s) per MPI task
# Compute elastic constant tensor for a crystal
#
# Written by Aidan Thompson (Sandia, athomps@sandia.gov)
#
#  This script uses the following three include files.
#
#   init.mod      (must be modified for different crystal structures)
# 	       	  Define units, deformation parameters and initial
#		  configuration of the atoms and simulation cell.
#
#
#   potential.mod    (must be modified for different pair styles)
# 		     Define pair style and other attributes
#		     not stored in restart file
#
#
#   displace.mod    (displace.mod should not need to be modified)
# 		    Perform positive and negative box displacements
# 		    in direction ${dir} and size ${up}.
# 		    It uses the resultant changes
#		    in stress to compute one
# 		    row of the elastic stiffness tensor
#
#		    Inputs variables:
#		    	   dir = the Voigt deformation component
#		    		    (1,2,3,4,5,6)
#		    Global constants:
#       	    	   up = the deformation magnitude (strain units)
#       		   cfac = conversion from LAMMPS pressure units to
#               	   output units for elastic constants
#
#
#  To run this on a different system, it should only be necessary to
#  modify the files init.mod and potential.mod. In order to calculate
#  the elastic constants correctly, care must be taken to specify
#  the correct units in init.mod (units, cfac and cunits). It is also
#  important to verify that the minimization of energy w.r.t atom
#  positions in the deformed cell is fully converged.
#  One indication of this is that the elastic constants are insensitive
#  to the choice of the variable ${up} in init.mod. Another is to check
#  the final max and two-norm forces reported in the log file. If you know
#  that minimization is not required, you can set maxiter = 0.0 in
#  init.mod.
#

include init.mod
# NOTE: This script can be modified for different atomic structures,
# units, etc. See in.elastic for more info.
#

# Define the finite deformation size. Try several values of this
# variable to verify that results do not depend on it.
variable up equal 1.0e-6

# Define the amount of random jiggle for atoms
# This prevents atoms from staying on saddle points
variable atomjiggle equal 1.0e-5

# Uncomment one of these blocks, depending on what units
# you are using in LAMMPS and for output

# metal units, elastic constants in eV/A^3
#units		metal
#variable cfac equal 6.2414e-7
#variable cunits string eV/A^3

# metal units, elastic constants in GPa
units		metal
variable cfac equal 1.0e-4
variable cunits string GPa

# real units, elastic constants in GPa
#units		real
#variable cfac equal 1.01325e-4
#variable cunits string GPa

# Define minimization parameters
variable etol equal 0.0
variable ftol equal 1.0e-10
variable maxiter equal 100
variable maxeval equal 1000
variable dmax equal 1.0e-2

# generate the box and atom positions using a diamond lattice
variable a equal 3.528

boundary	p p p

lattice         fcc $a
lattice         fcc 3.528
Lattice spacing in x,y,z = 3.528 3.528 3.528
region          box prism 0 20.0 0 20.0 0 20.0 0.0 0.0 0.0
create_box	1 box
Created triclinic box = (0 0 0) to (70.56 70.56 70.56) with tilt (0 0 0)
  1 by 2 by 3 MPI processor grid
create_atoms	1 box
Created 32000 atoms
  using lattice units in triclinic box = (0 0 0) to (70.56 70.56 70.56) with tilt (0 0 0)
  create_atoms CPU = 0.001 seconds

# Need to set mass to something, just to satisfy LAMMPS

include potential.mod
# NOTE: This script can be modified for different pair styles
# See in.elastic for more info.

# Choose potential
pair_style eam/alloy
pair_coeff * * Mishin-Ni-Al-2009.eam.alloy Ni


# Setup neighbor style
neighbor 1.0 nsq
neigh_modify once no every 1 delay 0 check yes

# Setup minimization style
min_style	     cg
min_modify	     dmax ${dmax} line quadratic
min_modify	     dmax 0.01 line quadratic

# Setup output
thermo		1
thermo_style custom step temp pe press pxx pyy pzz pxy pxz pyz lx ly lz vol
thermo_modify norm no

dump   1 all atom 1 generic.lammpstrj


# Compute initial state
fix 3 all box/relax  aniso 0.0
minimize ${etol} ${ftol} ${maxiter} ${maxeval}
minimize 0 ${ftol} ${maxiter} ${maxeval}
minimize 0 1e-10 ${maxiter} ${maxeval}
minimize 0 1e-10 100 ${maxeval}
minimize 0 1e-10 100 1000
Neighbor list info ...
  update every 1 steps, delay 0 steps, check yes
  max neighbors/atom: 2000, page size: 100000
  master list distance cutoff = 7.28721
  ghost atom cutoff = 7.28721
  1 neighbor lists, perpetual/occasional/extra = 1 0 0
  (1) pair eam/alloy, perpetual
      attributes: half, newton on
      pair build: half/nsq/newton
      stencil: none
      bin: none
Per MPI rank memory allocation (min/avg/max) = 7.186 | 7.285 | 7.623 Mbytes
   Step          Temp          PotEng         Press           Pxx            Pyy            Pzz            Pxy            Pxz            Pyz             Lx             Ly             Lz           Volume    
         0   0             -142390.91     -12141.117     -12141.117     -12141.117     -12141.117     -1.167486e-10  -1.4828817e-10 -3.6672172e-10  70.56          70.56          70.56          351298.03    
         1   0             -142391.69     -11614.082     -11614.082     -11614.082     -11614.082      2.4048889e-11 -1.7467683e-11  7.4243285e-10  70.552944      70.552944      70.552944      351192.65    
         2   0             -142392.44     -11086.375     -11086.375     -11086.375     -11086.375      2.9135939e-11 -2.4947703e-10  3.2544293e-10  70.545888      70.545888      70.545888      351087.29    
         3   0             -142393.15     -10557.841     -10557.841     -10557.841     -10557.841      2.696634e-10   6.264939e-10   1.0271813e-09  70.538832      70.538832      70.538832      350981.96    
         4   0             -142393.82     -10028.516     -10028.516     -10028.516     -10028.516     -3.3913132e-11  3.922337e-10   4.2616036e-10  70.531776      70.531776      70.531776      350876.64    
         5   0             -142394.47     -9498.3572     -9498.3572     -9498.3572     -9498.3572      8.9618473e-11  8.2261449e-11  3.4906991e-10  70.52472       70.52472       70.52472       350771.35    
         6   0             -142395.07     -8967.4206     -8967.4206     -8967.4206     -8967.4206      6.1469802e-11 -4.8758748e-10 -7.0641047e-12  70.517664      70.517664      70.517664      350666.07    
         7   0             -142395.64     -8435.6485     -8435.6485     -8435.6485     -8435.6485      1.4208575e-10 -2.0188764e-10  3.4028282e-10  70.510608      70.510608      70.510608      350560.82    
         8   0             -142396.18     -7903.0645     -7903.0645     -7903.0645     -7903.0645     -3.5416475e-11  1.576859e-10   7.4023537e-11  70.503552      70.503552      70.503552      350455.59    
         9   0             -142396.68     -7369.8633     -7369.8633     -7369.8633     -7369.8633     -3.1181992e-10 -2.2937855e-10 -5.8250832e-10  70.496496      70.496496      70.496496      350350.38    
        10   0             -142397.15     -6835.8819     -6835.8819     -6835.8819     -6835.8819      2.3818812e-11 -9.1830394e-10 -1.2049499e-09  70.48944       70.48944       70.48944       350245.19    
        11   0             -142397.58     -6301.1439     -6301.1439     -6301.1439     -6301.1439     -9.0699001e-11 -4.0135569e-10 -7.4692008e-10  70.482384      70.482384      70.482384      350140.02    
        12   0             -142397.98     -5765.7024     -5765.7024     -5765.7024     -5765.7024     -4.6183596e-11 -9.1360112e-10  2.6014476e-11  70.475328      70.475328      70.475328      350034.88    
        13   0             -142398.34     -5229.451      -5229.451      -5229.451      -5229.451       2.0210603e-11  5.1606058e-10  1.5067976e-10  70.468272      70.468272      70.468272      349929.75    
        14   0             -142398.66     -4692.3865     -4692.3865     -4692.3865     -4692.3865     -3.0905692e-10 -5.1772514e-10  2.3745919e-10  70.461216      70.461216      70.461216      349824.64    
        15   0             -142398.95     -4154.52       -4154.52       -4154.52       -4154.52       -1.6857518e-10  1.1908781e-09 -6.8610483e-12  70.45416       70.45416       70.45416       349719.56    
        16   0             -142399.21     -3615.8485     -3615.8485     -3615.8485     -3615.8485      2.8776735e-11  5.8900506e-10  8.5655252e-10  70.447104      70.447104      70.447104      349614.5     
        17   0             -142399.43     -3076.3657     -3076.3657     -3076.3657     -3076.3657      1.3372431e-10 -4.4568563e-10 -1.1581851e-10  70.440048      70.440048      70.440048      349509.46    
        18   0             -142399.61     -2536.1139     -2536.1139     -2536.1139     -2536.1139     -1.9245946e-10  1.0975832e-09  9.2468979e-10  70.432992      70.432992      70.432992      349404.43    
        19   0             -142399.76     -1995.0854     -1995.0854     -1995.0854     -1995.0854     -9.4646116e-12 -1.854073e-10   6.5761303e-10  70.425936      70.425936      70.425936      349299.43    
        20   0             -142399.87     -1453.3154     -1453.3154     -1453.3154     -1453.3154      1.5270459e-10 -6.4925025e-10  4.496093e-10   70.41888       70.41888       70.41888       349194.46    
        21   0             -142399.95     -910.79636     -910.79636     -910.79636     -910.79636      7.4556395e-11  8.7484996e-10 -3.0175712e-10  70.411824      70.411824      70.411824      349089.5     
        22   0             -142399.99     -367.47074     -367.47074     -367.47074     -367.47074     -1.1112434e-10 -5.2654498e-10  4.9660433e-10  70.404768      70.404768      70.404768      348984.56    
        23   0             -142400        -0.05336674    -0.053366739   -0.053366739   -0.053366744   -1.3995456e-10 -9.1117946e-10 -8.9420655e-10  70.400002      70.400002      70.400002      348913.69    
        24   0             -142400        -0.05336674    -0.053366739   -0.053366739   -0.053366744   -1.3995456e-10 -9.1117946e-10 -8.9420655e-10  70.400002      70.400002      70.400002      348913.69    
Loop time of 0.709774 on 6 procs for 24 steps with 32000 atoms

99.5% CPU use with 6 MPI tasks x 1 OpenMP threads

Minimization stats:
  Stopping criterion = linesearch alpha is zero
  Energy initial, next-to-last, final = 
     -142390.909034808  -142399.999544111  -142399.999544111
  Force two-norm initial, final = 4610.8886 0.020175526
  Force max component initial, final = 2662.0978 0.011648346
  Final line search alpha, max atom move = 1.6767402e-05 1.953125e-07
  Iterations, force evaluations = 24 43

MPI task timing breakdown:
Section |  min time  |  avg time  |  max time  |%varavg| %total
---------------------------------------------------------------
Pair    | 0.52612    | 0.54722    | 0.57253    |   2.5 | 77.10
Neigh   | 0          | 0          | 0          |   0.0 |  0.00
Comm    | 0.012954   | 0.038143   | 0.05928    |   9.4 |  5.37
Output  | 0.10001    | 0.10012    | 0.10027    |   0.0 | 14.11
Modify  | 0          | 0          | 0          |   0.0 |  0.00
Other   |            | 0.02429    |            |       |  3.42

Nlocal:        5333.33 ave        5600 max        5200 min
Histogram: 4 0 0 0 0 0 0 0 0 2
Nghost:          10061 ave       10431 max        9721 min
Histogram: 2 0 0 0 2 0 0 0 0 2
Neighs:         373333 ave      395480 max      360360 min
Histogram: 2 0 2 0 0 0 0 1 0 1

Total # of neighbors = 2240000
Ave neighs/atom = 70
Neighbor list builds = 0
Dangerous builds = 0

variable tmp equal pxx
variable pxx0 equal ${tmp}
variable pxx0 equal -0.0533667385749584
variable tmp equal pyy
variable pyy0 equal ${tmp}
variable pyy0 equal -0.0533667388626016
variable tmp equal pzz
variable pzz0 equal ${tmp}
variable pzz0 equal -0.0533667439509108
variable tmp equal pyz
variable pyz0 equal ${tmp}
variable pyz0 equal -8.9420654562719e-10
variable tmp equal pxz
variable pxz0 equal ${tmp}
variable pxz0 equal -9.11179456171854e-10
variable tmp equal pxy
variable pxy0 equal ${tmp}
variable pxy0 equal -1.39954558048042e-10

variable tmp equal lx
variable lx0 equal ${tmp}
variable lx0 equal 70.400001813909
variable tmp equal ly
variable ly0 equal ${tmp}
variable ly0 equal 70.400001813909
variable tmp equal lz
variable lz0 equal ${tmp}
variable lz0 equal 70.400001813909

# These formulas define the derivatives w.r.t. strain components
# Constants uses $, variables use v_
variable d1 equal -(v_pxx1-${pxx0})/(v_delta/v_len0)*${cfac}
variable d1 equal -(v_pxx1--0.0533667385749584)/(v_delta/v_len0)*${cfac}
variable d1 equal -(v_pxx1--0.0533667385749584)/(v_delta/v_len0)*0.0001
variable d2 equal -(v_pyy1-${pyy0})/(v_delta/v_len0)*${cfac}
variable d2 equal -(v_pyy1--0.0533667388626016)/(v_delta/v_len0)*${cfac}
variable d2 equal -(v_pyy1--0.0533667388626016)/(v_delta/v_len0)*0.0001
variable d3 equal -(v_pzz1-${pzz0})/(v_delta/v_len0)*${cfac}
variable d3 equal -(v_pzz1--0.0533667439509108)/(v_delta/v_len0)*${cfac}
variable d3 equal -(v_pzz1--0.0533667439509108)/(v_delta/v_len0)*0.0001
variable d4 equal -(v_pyz1-${pyz0})/(v_delta/v_len0)*${cfac}
variable d4 equal -(v_pyz1--8.9420654562719e-10)/(v_delta/v_len0)*${cfac}
variable d4 equal -(v_pyz1--8.9420654562719e-10)/(v_delta/v_len0)*0.0001
variable d5 equal -(v_pxz1-${pxz0})/(v_delta/v_len0)*${cfac}
variable d5 equal -(v_pxz1--9.11179456171854e-10)/(v_delta/v_len0)*${cfac}
variable d5 equal -(v_pxz1--9.11179456171854e-10)/(v_delta/v_len0)*0.0001
variable d6 equal -(v_pxy1-${pxy0})/(v_delta/v_len0)*${cfac}
variable d6 equal -(v_pxy1--1.39954558048042e-10)/(v_delta/v_len0)*${cfac}
variable d6 equal -(v_pxy1--1.39954558048042e-10)/(v_delta/v_len0)*0.0001

displace_atoms all random ${atomjiggle} ${atomjiggle} ${atomjiggle} 87287 units box
displace_atoms all random 1e-05 ${atomjiggle} ${atomjiggle} 87287 units box
displace_atoms all random 1e-05 1e-05 ${atomjiggle} 87287 units box
displace_atoms all random 1e-05 1e-05 1e-05 87287 units box
Displacing atoms ...

# Write restart
unfix 3
write_restart restart.equil
System init for write_restart ...

# uxx Perturbation

variable dir equal 1
include displace.mod
# NOTE: This script should not need to be
# modified. See in.elastic for more info.
#
# Find which reference length to use

if "${dir} == 1" then    "variable len0 equal ${lx0}"
variable len0 equal ${lx0}
variable len0 equal 70.400001813909
if "${dir} == 2" then    "variable len0 equal ${ly0}"
if "${dir} == 3" then    "variable len0 equal ${lz0}"
if "${dir} == 4" then    "variable len0 equal ${lz0}"
if "${dir} == 5" then    "variable len0 equal ${lz0}"
if "${dir} == 6" then    "variable len0 equal ${ly0}"

# Reset box and simulation parameters

clear
OMP_NUM_THREADS environment is not set. Defaulting to 1 thread. (src/comm.cpp:98)
  using 1 OpenMP thread(s) per MPI task
box tilt large
read_restart restart.equil
Reading restart file ...
  restart file = 24 Mar 2022, LAMMPS = 24 Mar 2022
  restoring atom style atomic from restart
  triclinic box = (0.079999093 0.079999093 0.079999093) to (70.480001 70.480001 70.480001) with tilt (0 0 0)
  1 by 2 by 3 MPI processor grid
  pair style eam/alloy stores no restart info
  32000 atoms
  read_restart CPU = 0.003 seconds
include potential.mod
# NOTE: This script can be modified for different pair styles
# See in.elastic for more info.

# Choose potential
pair_style eam/alloy
pair_coeff * * Mishin-Ni-Al-2009.eam.alloy Ni


# Setup neighbor style
neighbor 1.0 nsq
neigh_modify once no every 1 delay 0 check yes

# Setup minimization style
min_style	     cg
min_modify	     dmax ${dmax} line quadratic
min_modify	     dmax 0.01 line quadratic

# Setup output
thermo		1
thermo_style custom step temp pe press pxx pyy pzz pxy pxz pyz lx ly lz vol
thermo_modify norm no

# Negative deformation

variable delta equal -${up}*${len0}
variable delta equal -1e-06*${len0}
variable delta equal -1e-06*70.400001813909
variable deltaxy equal -${up}*xy
variable deltaxy equal -1e-06*xy
variable deltaxz equal -${up}*xz
variable deltaxz equal -1e-06*xz
variable deltayz equal -${up}*yz
variable deltayz equal -1e-06*yz
if "${dir} == 1" then    "change_box all x delta 0 ${delta} xy delta ${deltaxy} xz delta ${deltaxz} remap units box"
change_box all x delta 0 ${delta} xy delta ${deltaxy} xz delta ${deltaxz} remap units box
change_box all x delta 0 -7.0400001813909e-05 xy delta ${deltaxy} xz delta ${deltaxz} remap units box
change_box all x delta 0 -7.0400001813909e-05 xy delta -0 xz delta ${deltaxz} remap units box
change_box all x delta 0 -7.0400001813909e-05 xy delta -0 xz delta -0 remap units box
Changing box ...
  triclinic box = (0.079999093 0.079999093 0.079999093) to (70.479931 70.480001 70.480001) with tilt (0 0 0)
  triclinic box = (0.079999093 0.079999093 0.079999093) to (70.479931 70.480001 70.480001) with tilt (0 0 0)
  triclinic box = (0.079999093 0.079999093 0.079999093) to (70.479931 70.480001 70.480001) with tilt (0 0 0)
if "${dir} == 2" then    "change_box all y delta 0 ${delta} yz delta ${deltayz} remap units box"
if "${dir} == 3" then    "change_box all z delta 0 ${delta} remap units box"
if "${dir} == 4" then    "change_box all yz delta ${delta} remap units box"
if "${dir} == 5" then    "change_box all xz delta ${delta} remap units box"
if "${dir} == 6" then    "change_box all xy delta ${delta} remap units box"

# Relax atoms positions

minimize ${etol} ${ftol} ${maxiter} ${maxeval}
minimize 0 ${ftol} ${maxiter} ${maxeval}
minimize 0 1e-10 ${maxiter} ${maxeval}
minimize 0 1e-10 100 ${maxeval}
minimize 0 1e-10 100 1000
Neighbor list info ...
  update every 1 steps, delay 0 steps, check yes
  max neighbors/atom: 2000, page size: 100000
  master list distance cutoff = 7.28721
  ghost atom cutoff = 7.28721
  1 neighbor lists, perpetual/occasional/extra = 1 0 0
  (1) pair eam/alloy, perpetual
      attributes: half, newton on
      pair build: half/nsq/newton
      stencil: none
      bin: none
Per MPI rank memory allocation (min/avg/max) = 5.97 | 5.985 | 5.992 Mbytes
   Step          Temp          PotEng         Press           Pxx            Pyy            Pzz            Pxy            Pxz            Pyz             Lx             Ly             Lz           Volume    
        24   0             -142400         1.7565676      2.3599841      1.454859       1.4548597      5.1849208e-07 -7.8911843e-08 -1.1039452e-06  70.399931      70.400002      70.400002      348913.34    
        25   0             -142400         1.7564474      2.3598635      1.4547392      1.4547393     -4.5273202e-08  8.9585126e-08 -1.3232694e-07  70.399931      70.400002      70.400002      348913.34    
        26   0             -142400         1.7564343      2.3598506      1.4547262      1.4547262      1.2351557e-08  6.3768372e-09 -6.888344e-08   70.399931      70.400002      70.400002      348913.34    
        27   0             -142400         1.7564322      2.3598485      1.4547241      1.4547241      4.8141052e-09  4.2053506e-10 -1.262447e-08   70.399931      70.400002      70.400002      348913.34    
        28   0             -142400         1.7564317      2.359848       1.4547236      1.4547236      6.0183636e-09 -3.1180738e-09 -4.3198403e-09  70.399931      70.400002      70.400002      348913.34    
        29   0             -142400         1.7564316      2.3598478      1.4547234      1.4547234      2.7741398e-09 -3.4568771e-10 -2.925833e-09   70.399931      70.400002      70.400002      348913.34    
        30   0             -142400         1.7564315      2.3598478      1.4547234      1.4547234      6.5325435e-10  3.5485603e-10 -1.4469617e-09  70.399931      70.400002      70.400002      348913.34    
        31   0             -142400         1.7564315      2.3598477      1.4547234      1.4547234      1.1716105e-10  5.448456e-10  -1.5379922e-09  70.399931      70.400002      70.400002      348913.34    
        32   0             -142400         1.7564315      2.3598477      1.4547233      1.4547233      3.9654574e-11  1.3011823e-10 -2.3129591e-10  70.399931      70.400002      70.400002      348913.34    
        33   0             -142400         1.7564315      2.3598477      1.4547233      1.4547233     -8.8746634e-11  2.3687521e-11 -2.201047e-10   70.399931      70.400002      70.400002      348913.34    
        34   0             -142400         1.7564315      2.3598477      1.4547233      1.4547233     -8.922381e-11  -3.2079298e-10 -6.1907302e-10  70.399931      70.400002      70.400002      348913.34    
        35   0             -142400         1.7564315      2.3598477      1.4547233      1.4547233      9.3118711e-11 -2.0140918e-10 -1.4065689e-10  70.399931      70.400002      70.400002      348913.34    
        36   0             -142400         1.7564315      2.3598477      1.4547233      1.4547233     -6.6845465e-11 -4.3019278e-10 -1.5168496e-10  70.399931      70.400002      70.400002      348913.34    
        37   0             -142400         1.7564315      2.3598477      1.4547233      1.4547233     -1.768815e-11  -6.1176448e-11 -2.4881685e-10  70.399931      70.400002      70.400002      348913.34    
        38   0             -142400         1.7564315      2.3598477      1.4547233      1.4547233     -1.4639932e-10 -1.2205925e-10  7.7849069e-11  70.399931      70.400002      70.400002      348913.34    
        39   0             -142400         1.7564315      2.3598477      1.4547233      1.4547233     -2.7019598e-11 -2.4274815e-11  5.9577703e-11  70.399931      70.400002      70.400002      348913.34    
        40   0             -142400         1.7564315      2.3598477      1.4547233      1.4547233     -1.2480811e-10  1.8108229e-11 -9.4456435e-11  70.399931      70.400002      70.400002      348913.34    
        41   0             -142400         1.7564315      2.3598477      1.4547233      1.4547233     -1.6102865e-10 -1.0430992e-10  4.5724093e-10  70.399931      70.400002      70.400002      348913.34    
        42   0             -142400         1.7564315      2.3598477      1.4547233      1.4547233     -8.584687e-11  -1.6434441e-10  3.9544456e-11  70.399931      70.400002      70.400002      348913.34    
        43   0             -142400         1.7564315      2.3598477      1.4547233      1.4547233     -1.1751588e-10  4.7538178e-11  2.044109e-10   70.399931      70.400002      70.400002      348913.34    
        44   0             -142400         1.7564315      2.3598477      1.4547233      1.4547233      6.3064761e-11 -3.6477477e-10  6.408029e-11   70.399931      70.400002      70.400002      348913.34    
        45   0             -142400         1.7564315      2.3598477      1.4547233      1.4547233     -8.4036047e-11 -1.3269579e-10  2.3530909e-10  70.399931      70.400002      70.400002      348913.34    
        46   0             -142400         1.7564315      2.3598477      1.4547233      1.4547233     -1.5378535e-10 -2.2728274e-10 -2.2030047e-10  70.399931      70.400002      70.400002      348913.34    
        47   0             -142400         1.7564315      2.3598477      1.4547233      1.4547233      9.1564829e-11  4.5456548e-10  8.0752911e-11  70.399931      70.400002      70.400002      348913.34    
        48   0             -142400         1.7564315      2.3598477      1.4547233      1.4547233     -6.8419739e-11 -1.0215651e-10  7.7946951e-11  70.399931      70.400002      70.400002      348913.34    
        49   0             -142400         1.7564315      2.3598477      1.4547233      1.4547233     -1.8038895e-11 -2.773006e-10  -6.8517622e-12  70.399931      70.400002      70.400002      348913.34    
        50   0             -142400         1.7564315      2.3598477      1.4547233      1.4547233      5.0478726e-11  7.7066011e-11  3.8141476e-11  70.399931      70.400002      70.400002      348913.34    
        51   0             -142400         1.7564315      2.3598477      1.4547233      1.4547233     -1.1746286e-10 -8.5516517e-11 -2.0219224e-10  70.399931      70.400002      70.400002      348913.34    
        52   0             -142400         1.7564315      2.3598477      1.4547233      1.4547233     -1.3192089e-10 -3.6144677e-10 -7.3999031e-11  70.399931      70.400002      70.400002      348913.34    
        53   0             -142400         1.7564315      2.3598477      1.4547233      1.4547233     -1.7294582e-10 -1.0616969e-10 -2.0144181e-10  70.399931      70.400002      70.400002      348913.34    
        54   0             -142400         1.7564315      2.3598477      1.4547233      1.4547233      1.9870926e-10 -2.2633654e-10  2.6431488e-10  70.399931      70.400002      70.400002      348913.34    
        55   0             -142400         1.7564315      2.3598477      1.4547233      1.4547233      1.5213359e-10  2.2578188e-11  5.9284056e-11  70.399931      70.400002      70.400002      348913.34    
        56   0             -142400         1.7564315      2.3598477      1.4547233      1.4547233      5.1959196e-11 -3.3563846e-10 -2.3716885e-10  70.399931      70.400002      70.400002      348913.34    
        57   0             -142400         1.7564315      2.3598477      1.4547233      1.4547233      7.709456e-11   1.8134331e-10 -2.0620541e-11  70.399931      70.400002      70.400002      348913.34    
        58   0             -142400         1.7564315      2.3598477      1.4547233      1.4547233     -3.6901633e-11 -1.4571414e-10  1.5396888e-10  70.399931      70.400002      70.400002      348913.34    
        59   0             -142400         1.7564315      2.3598477      1.4547233      1.4547233      7.8864598e-11  4.293771e-11  -7.7163893e-11  70.399931      70.400002      70.400002      348913.34    
        60   0             -142400         1.7564315      2.3598477      1.4547233      1.4547233     -1.1288278e-10 -2.8516382e-10  4.013175e-11   70.399931      70.400002      70.400002      348913.34    
        61   0             -142400         1.7564315      2.3598477      1.4547233      1.4547233     -2.212956e-11  -3.836008e-10  -3.2585023e-10  70.399931      70.400002      70.400002      348913.34    
        62   0             -142400         1.7564315      2.3598477      1.4547233      1.4547233     -1.9535679e-12  2.52569e-10    1.7684072e-10  70.399931      70.400002      70.400002      348913.34    
        63   0             -142400         1.7564315      2.3598477      1.4547233      1.4547233      1.087187e-10  -1.3834034e-11 -6.688625e-11   70.399931      70.400002      70.400002      348913.34    
        64   0             -142400         1.7564315      2.3598477      1.4547233      1.4547233      1.1607211e-11 -9.63162e-11    1.9034848e-10  70.399931      70.400002      70.400002      348913.34    
        65   0             -142400         1.7564315      2.3598477      1.4547233      1.4547233     -5.9235115e-11  8.0589774e-11  7.5043109e-13  70.399931      70.400002      70.400002      348913.34    
        66   0             -142400         1.7564315      2.3598477      1.4547233      1.4547233      1.183438e-10  -6.7865073e-11  8.7930948e-11  70.399931      70.400002      70.400002      348913.34    
        67   0             -142400         1.7564315      2.3598477      1.4547233      1.4547233      1.5381798e-10  1.2039525e-11 -2.0480243e-10  70.399931      70.400002      70.400002      348913.34    
        68   0             -142400         1.7564315      2.3598477      1.4547233      1.4547233     -1.358525e-10   5.8076841e-12 -2.5380885e-10  70.399931      70.400002      70.400002      348913.34    
        69   0             -142400         1.7564315      2.3598477      1.4547233      1.4547233      5.7844371e-11 -6.3395114e-11 -1.859764e-12   70.399931      70.400002      70.400002      348913.34    
        70   0             -142400         1.7564315      2.3598477      1.4547233      1.4547233      2.8875283e-11  2.4330281e-10 -3.1436537e-10  70.399931      70.400002      70.400002      348913.34    
        71   0             -142400         1.7564315      2.3598477      1.4547233      1.4547233      1.7556825e-10  3.7988127e-10 -2.2056149e-11  70.399931      70.400002      70.400002      348913.34    
        72   0             -142400         1.7564315      2.3598477      1.4547233      1.4547233      7.2318718e-11 -4.7603433e-11 -4.1763122e-12  70.399931      70.400002      70.400002      348913.34    
        73   0             -142400         1.7564315      2.3598477      1.4547233      1.4547233      1.2180639e-10  2.0069138e-10  1.5765578e-10  70.399931      70.400002      70.400002      348913.34    
        74   0             -142400         1.7564315      2.3598477      1.4547233      1.4547233      1.5257406e-10 -1.271165e-10   2.0434565e-10  70.399931      70.400002      70.400002      348913.34    
        75   0             -142400         1.7564315      2.3598477      1.4547233      1.4547233      7.4092835e-11 -4.3231356e-11 -1.0721376e-10  70.399931      70.400002      70.400002      348913.34    
        76   0             -142400         1.7564315      2.3598477      1.4547233      1.4547233     -3.8708378e-11 -1.4303869e-10 -1.5746002e-10  70.399931      70.400002      70.400002      348913.34    
        77   0             -142400         1.7564315      2.3598477      1.4547233      1.4547233     -9.0267888e-11 -1.0623494e-10 -3.2294639e-10  70.399931      70.400002      70.400002      348913.34    
        78   0             -142400         1.7564315      2.3598477      1.4547233      1.4547233     -9.4223965e-11 -5.7293783e-11  2.9495205e-11  70.399931      70.400002      70.400002      348913.34    
        79   0             -142400         1.7564315      2.3598477      1.4547233      1.4547233     -1.0016624e-11  6.6070564e-11 -8.8094085e-13  70.399931      70.400002      70.400002      348913.34    
        80   0             -142400         1.7564315      2.3598477      1.4547233      1.4547233      1.3027728e-10  3.0907973e-10  1.3347885e-10  70.399931      70.400002      70.400002      348913.34    
        81   0             -142400         1.7564315      2.3598477      1.4547233      1.4547233      1.1959996e-10  8.02635e-11    1.4754128e-10  70.399931      70.400002      70.400002      348913.34    
        82   0             -142400         1.7564315      2.3598477      1.4547233      1.4547233      4.0767985e-11  2.5025246e-11 -3.6601461e-10  70.399931      70.400002      70.400002      348913.34    
        83   0             -142400         1.7564315      2.3598477      1.4547233      1.4547233      2.8458468e-10 -2.4901261e-10 -2.0121342e-10  70.399931      70.400002      70.400002      348913.34    
        84   0             -142400         1.7564315      2.3598477      1.4547233      1.4547233      2.7280617e-11 -1.4062426e-10 -3.1505055e-10  70.399931      70.400002      70.400002      348913.34    
        85   0             -142400         1.7564315      2.3598477      1.4547233      1.4547233     -1.4070583e-12 -2.1661357e-10 -2.3348195e-10  70.399931      70.400002      70.400002      348913.34    
        86   0             -142400         1.7564315      2.3598477      1.4547233      1.4547233      7.1759973e-11 -1.1755666e-10  7.1617228e-11  70.399931      70.400002      70.400002      348913.34    
        87   0             -142400         1.7564315      2.3598477      1.4547233      1.4547233      6.366429e-12   3.7227908e-11  1.0117769e-10  70.399931      70.400002      70.400002      348913.34    
        88   0             -142400         1.7564315      2.3598477      1.4547233      1.4547233     -6.0890958e-11 -4.3068219e-11  1.6901013e-10  70.399931      70.400002      70.400002      348913.34    
        89   0             -142400         1.7564315      2.3598477      1.4547233      1.4547233     -1.5706033e-10 -1.2992246e-10 -1.9380699e-11  70.399931      70.400002      70.400002      348913.34    
        90   0             -142400         1.7564315      2.3598477      1.4547233      1.4547233      1.1092921e-10  4.3068219e-12 -2.8033495e-10  70.399931      70.400002      70.400002      348913.34    
        91   0             -142400         1.7564315      2.3598477      1.4547233      1.4547233      1.3968622e-10 -1.6780292e-10 -2.7619127e-10  70.399931      70.400002      70.400002      348913.34    
        92   0             -142400         1.7564315      2.3598477      1.4547233      1.4547233     -4.0502887e-11 -2.6199833e-11 -4.1723969e-10  70.399931      70.400002      70.400002      348913.34    
        93   0             -142400         1.7564315      2.3598477      1.4547233      1.4547233      1.0889e-10    -2.1113216e-10 -5.7424292e-11  70.399931      70.400002      70.400002      348913.34    
        94   0             -142400         1.7564315      2.3598477      1.4547233      1.4547233     -6.0846095e-11 -2.0538973e-10  1.8946754e-10  70.399931      70.400002      70.400002      348913.34    
        95   0             -142400         1.7564315      2.3598477      1.4547233      1.4547233      1.0151212e-10  7.3868522e-11  1.0600655e-10  70.399931      70.400002      70.400002      348913.34    
        96   0             -142400         1.7564315      2.3598477      1.4547233      1.4547233      1.4537971e-10 -3.2562184e-11  1.4068952e-10  70.399931      70.400002      70.400002      348913.34    
        97   0             -142400         1.7564315      2.3598477      1.4547233      1.4547233      1.46799e-10   -1.4522473e-10  1.0721376e-10  70.399931      70.400002      70.400002      348913.34    
        98   0             -142400         1.7564315      2.3598477      1.4547233      1.4547233     -1.6106943e-10  3.8663515e-11  9.7425532e-11  70.399931      70.400002      70.400002      348913.34    
        99   0             -142400         1.7564315      2.3598477      1.4547233      1.4547233     -2.8022892e-11 -1.311623e-10  -1.8861922e-10  70.399931      70.400002      70.400002      348913.34    
       100   0             -142400         1.7564315      2.3598477      1.4547233      1.4547233      4.2693004e-11  3.2956976e-10  8.3722008e-11  70.399931      70.400002      70.400002      348913.34    
       101   0             -142400         1.7564315      2.3598477      1.4547233      1.4547233      7.738005e-11   1.3344622e-10 -2.5687583e-10  70.399931      70.400002      70.400002      348913.34    
       102   0             -142400         1.7564315      2.3598477      1.4547233      1.4547233     -6.8847974e-11 -4.7831825e-11  6.8615504e-11  70.399931      70.400002      70.400002      348913.34    
       103   0             -142400         1.7564315      2.3598477      1.4547233      1.4547233      1.5488653e-10 -1.2538725e-10 -1.3292419e-10  70.399931      70.400002      70.400002      348913.34    
       104   0             -142400         1.7564315      2.3598477      1.4547233      1.4547233      6.6086877e-11  9.9546316e-11  2.8333668e-10  70.399931      70.400002      70.400002      348913.34    
       105   0             -142400         1.7564315      2.3598477      1.4547233      1.4547233     -1.2745909e-10 -2.4075787e-10 -3.7782574e-11  70.399931      70.400002      70.400002      348913.34    
       106   0             -142400         1.7564315      2.3598477      1.4547233      1.4547233      1.1033784e-10 -8.815934e-11   8.5157615e-12  70.399931      70.400002      70.400002      348913.34    
       107   0             -142400         1.7564315      2.3598477      1.4547233      1.4547233     -2.0412541e-10 -2.8982954e-10 -6.9496445e-12  70.399931      70.400002      70.400002      348913.34    
       108   0             -142400         1.7564315      2.3598477      1.4547233      1.4547233      1.2357235e-10  1.5834096e-10 -4.0555907e-11  70.399931      70.400002      70.400002      348913.34    
       109   0             -142400         1.7564315      2.3598477      1.4547233      1.4547233     -1.1574992e-10 -2.9593087e-11  5.9577703e-11  70.399931      70.400002      70.400002      348913.34    
       110   0             -142400         1.7564315      2.3598477      1.4547233      1.4547233     -1.2680654e-10  3.8891907e-11  6.9659582e-11  70.399931      70.400002      70.400002      348913.34    
       111   0             -142400         1.7564315      2.3598477      1.4547233      1.4547233      1.5988669e-10  5.872939e-13  -2.8819817e-10  70.399931      70.400002      70.400002      348913.34    
       112   0             -142400         1.7564315      2.3598477      1.4547233      1.4547233     -2.0994126e-10 -2.0581388e-10 -2.0656432e-10  70.399931      70.400002      70.400002      348913.34    
       113   0             -142400         1.7564315      2.3598477      1.4547233      1.4547233     -3.4833869e-11 -1.0917141e-10 -8.6005929e-11  70.399931      70.400002      70.400002      348913.34    
       114   0             -142400         1.7564315      2.3598477      1.4547233      1.4547233      9.8534865e-12  7.1258326e-11 -2.186691e-10   70.399931      70.400002      70.400002      348913.34    
       115   0             -142400         1.7564315      2.3598477      1.4547233      1.4547233      1.0814365e-10  7.5565148e-11 -1.0506035e-11  70.399931      70.400002      70.400002      348913.34    
       116   0             -142400         1.7564315      2.3598477      1.4547233      1.4547233     -3.8745084e-13  4.0520016e-10  1.5331634e-10  70.399931      70.400002      70.400002      348913.34    
       117   0             -142400         1.7564315      2.3598477      1.4547233      1.4547233     -3.119591e-11  -9.0639025e-11  3.0460977e-10  70.399931      70.400002      70.400002      348913.34    
       118   0             -142400         1.7564315      2.3598477      1.4547233      1.4547233      8.7894242e-11  3.7097398e-11  1.9302393e-10  70.399931      70.400002      70.400002      348913.34    
       119   0             -142400         1.7564315      2.3598477      1.4547233      1.4547233      2.483152e-10   9.3803887e-11  2.6565261e-10  70.399931      70.400002      70.400002      348913.34    
       120   0             -142400         1.7564315      2.3598477      1.4547233      1.4547233     -5.3146019e-11  3.601743e-10  -5.3835274e-12  70.399931      70.400002      70.400002      348913.34    
       121   0             -142400         1.7564315      2.3598477      1.4547233      1.4547233      9.5284357e-11  1.8255052e-10 -3.2568709e-10  70.399931      70.400002      70.400002      348913.34    
       122   0             -142400         1.7564315      2.3598477      1.4547233      1.4547233      5.8639664e-11 -1.806255e-10   2.9364695e-11  70.399931      70.400002      70.400002      348913.34    
       123   0             -142400         1.7564315      2.3598477      1.4547233      1.4547233     -8.9945692e-11  2.7951927e-10 -1.2072152e-10  70.399931      70.400002      70.400002      348913.34    
       124   0             -142400         1.7564315      2.3598477      1.4547233      1.4547233     -8.9945692e-11  2.7951927e-10 -1.2072152e-10  70.399931      70.400002      70.400002      348913.34    
Loop time of 2.92982 on 6 procs for 100 steps with 32000 atoms

99.6% CPU use with 6 MPI tasks x 1 OpenMP threads

Minimization stats:
  Stopping criterion = linesearch alpha is zero
  Energy initial, next-to-last, final = 
     -142399.999526133  -142399.999543338  -142399.999543338
  Force two-norm initial, final = 0.022070463 6.922709e-09
  Force max component initial, final = 0.00023348779 9.9412357e-11
  Final line search alpha, max atom move = 0.5 4.9706178e-11
  Iterations, force evaluations = 100 201

MPI task timing breakdown:
Section |  min time  |  avg time  |  max time  |%varavg| %total
---------------------------------------------------------------
Pair    | 2.6816     | 2.7443     | 2.8005     |   2.8 | 93.67
Neigh   | 0          | 0          | 0          |   0.0 |  0.00
Comm    | 0.079205   | 0.13535    | 0.19769    |  12.4 |  4.62
Output  | 0.01084    | 0.011179   | 0.012073   |   0.4 |  0.38
Modify  | 0          | 0          | 0          |   0.0 |  0.00
Other   |            | 0.03902    |            |       |  1.33

Nlocal:        5333.33 ave        5428 max        5190 min
Histogram: 2 0 0 0 0 0 0 1 2 1
Nghost:          10061 ave       10262 max        9711 min
Histogram: 2 0 0 0 0 0 0 0 1 3
Neighs:         373333 ave      380266 max      361506 min
Histogram: 1 0 1 0 0 0 1 0 1 2

Total # of neighbors = 2240000
Ave neighs/atom = 70
Neighbor list builds = 0
Dangerous builds = 0

# Obtain new stress tensor

variable tmp equal pxx
variable pxx1 equal ${tmp}
variable pxx1 equal 2.35984769987254
variable tmp equal pyy
variable pyy1 equal ${tmp}
variable pyy1 equal 1.45472333270216
variable tmp equal pzz
variable pzz1 equal ${tmp}
variable pzz1 equal 1.45472333253224
variable tmp equal pxy
variable pxy1 equal ${tmp}
variable pxy1 equal -8.99456920727432e-11
variable tmp equal pxz
variable pxz1 equal ${tmp}
variable pxz1 equal 2.79519268699444e-10
variable tmp equal pyz
variable pyz1 equal ${tmp}
variable pyz1 equal -1.20721523775877e-10

# Compute elastic constant from pressure tensor

variable C1neg equal ${d1}
variable C1neg equal 241.32144384475
variable C2neg equal ${d2}
variable C2neg equal 150.809007156476
variable C3neg equal ${d3}
variable C3neg equal 150.809007648315
variable C4neg equal ${d4}
variable C4neg equal 7.73485021851313e-08
variable C5neg equal ${d5}
variable C5neg equal 1.1906987248713e-07
variable C6neg equal ${d6}
variable C6neg equal 5.00088659752988e-09

# Reset box and simulation parameters

clear
OMP_NUM_THREADS environment is not set. Defaulting to 1 thread. (src/comm.cpp:98)
  using 1 OpenMP thread(s) per MPI task
box tilt large
read_restart restart.equil
Reading restart file ...
  restart file = 24 Mar 2022, LAMMPS = 24 Mar 2022
  restoring atom style atomic from restart
  triclinic box = (0.079999093 0.079999093 0.079999093) to (70.480001 70.480001 70.480001) with tilt (0 0 0)
  1 by 2 by 3 MPI processor grid
  pair style eam/alloy stores no restart info
  32000 atoms
  read_restart CPU = 0.002 seconds
include potential.mod
# NOTE: This script can be modified for different pair styles
# See in.elastic for more info.

# Choose potential
pair_style eam/alloy
pair_coeff * * Mishin-Ni-Al-2009.eam.alloy Ni


# Setup neighbor style
neighbor 1.0 nsq
neigh_modify once no every 1 delay 0 check yes

# Setup minimization style
min_style	     cg
min_modify	     dmax ${dmax} line quadratic
min_modify	     dmax 0.01 line quadratic

# Setup output
thermo		1
thermo_style custom step temp pe press pxx pyy pzz pxy pxz pyz lx ly lz vol
thermo_modify norm no

# Positive deformation

variable delta equal ${up}*${len0}
variable delta equal 1e-06*${len0}
variable delta equal 1e-06*70.400001813909
variable deltaxy equal ${up}*xy
variable deltaxy equal 1e-06*xy
variable deltaxz equal ${up}*xz
variable deltaxz equal 1e-06*xz
variable deltayz equal ${up}*yz
variable deltayz equal 1e-06*yz
if "${dir} == 1" then    "change_box all x delta 0 ${delta} xy delta ${deltaxy} xz delta ${deltaxz} remap units box"
change_box all x delta 0 ${delta} xy delta ${deltaxy} xz delta ${deltaxz} remap units box
change_box all x delta 0 7.0400001813909e-05 xy delta ${deltaxy} xz delta ${deltaxz} remap units box
change_box all x delta 0 7.0400001813909e-05 xy delta 0 xz delta ${deltaxz} remap units box
change_box all x delta 0 7.0400001813909e-05 xy delta 0 xz delta 0 remap units box
Changing box ...
  triclinic box = (0.079999093 0.079999093 0.079999093) to (70.480071 70.480001 70.480001) with tilt (0 0 0)
  triclinic box = (0.079999093 0.079999093 0.079999093) to (70.480071 70.480001 70.480001) with tilt (0 0 0)
  triclinic box = (0.079999093 0.079999093 0.079999093) to (70.480071 70.480001 70.480001) with tilt (0 0 0)
if "${dir} == 2" then    "change_box all y delta 0 ${delta} yz delta ${deltayz} remap units box"
if "${dir} == 3" then    "change_box all z delta 0 ${delta} remap units box"
if "${dir} == 4" then    "change_box all yz delta ${delta} remap units box"
if "${dir} == 5" then    "change_box all xz delta ${delta} remap units box"
if "${dir} == 6" then    "change_box all xy delta ${delta} remap units box"

# Relax atoms positions

minimize ${etol} ${ftol} ${maxiter} ${maxeval}
minimize 0 ${ftol} ${maxiter} ${maxeval}
minimize 0 1e-10 ${maxiter} ${maxeval}
minimize 0 1e-10 100 ${maxeval}
minimize 0 1e-10 100 1000
Neighbor list info ...
  update every 1 steps, delay 0 steps, check yes
  max neighbors/atom: 2000, page size: 100000
  master list distance cutoff = 7.28721
  ghost atom cutoff = 7.28721
  1 neighbor lists, perpetual/occasional/extra = 1 0 0
  (1) pair eam/alloy, perpetual
      attributes: half, newton on
      pair build: half/nsq/newton
      stencil: none
      bin: none
Per MPI rank memory allocation (min/avg/max) = 5.97 | 5.985 | 5.992 Mbytes
   Step          Temp          PotEng         Press           Pxx            Pyy            Pzz            Pxy            Pxz            Pyz             Lx             Ly             Lz           Volume    
        24   0             -142400        -1.8630208     -2.4664411     -1.561311      -1.5613103      5.1835023e-07 -7.8969272e-08 -1.1041595e-06  70.400072      70.400002      70.400002      348914.04    
        25   0             -142400        -1.863141      -2.4665617     -1.5614308     -1.5614306     -4.5064031e-08  9.0027668e-08 -1.3240355e-07  70.400072      70.400002      70.400002      348914.04    
        26   0             -142400        -1.8631541     -2.4665747     -1.5614437     -1.5614438      1.2371093e-08  5.9825879e-09 -6.8077602e-08  70.400072      70.400002      70.400002      348914.04    
        27   0             -142400        -1.8631562     -2.4665768     -1.5614459     -1.5614459      4.8191732e-09  4.0878836e-10 -1.2820535e-08  70.400072      70.400002      70.400002      348914.04    
        28   0             -142400        -1.8631567     -2.4665773     -1.5614464     -1.5614464      5.9604053e-09 -3.576319e-09  -4.3217567e-09  70.400072      70.400002      70.400002      348914.04    
        29   0             -142400        -1.8631569     -2.4665775     -1.5614466     -1.5614465      2.7025498e-09 -6.2448793e-10 -2.2926277e-09  70.400072      70.400002      70.400002      348914.04    
        30   0             -142400        -1.8631569     -2.4665775     -1.5614466     -1.5614466      8.6557975e-10 -8.1894708e-11 -1.7848478e-09  70.400072      70.400002      70.400002      348914.04    
        31   0             -142400        -1.8631569     -2.4665775     -1.5614466     -1.5614466      3.5690268e-11  8.303014e-10  -1.3308053e-09  70.400072      70.400002      70.400002      348914.04    
        32   0             -142400        -1.8631569     -2.4665775     -1.5614466     -1.5614466     -2.7260171e-11  1.2607217e-10 -7.1470262e-10  70.400072      70.400002      70.400002      348914.04    
        33   0             -142400        -1.8631569     -2.4665775     -1.5614466     -1.5614466      1.3418007e-12  2.9906251e-10 -5.1293494e-10  70.400072      70.400002      70.400002      348914.04    
        34   0             -142400        -1.8631569     -2.4665776     -1.5614466     -1.5614466     -1.5807555e-10  8.1894708e-12 -1.0499489e-10  70.400072      70.400002      70.400002      348914.04    
        35   0             -142400        -1.8631569     -2.4665776     -1.5614466     -1.5614466     -6.3949652e-12 -1.4995541e-10 -5.1224977e-11  70.400072      70.400002      70.400002      348914.04    
        36   0             -142400        -1.863157      -2.4665776     -1.5614466     -1.5614466     -2.7442884e-10 -4.1221424e-10 -4.7861094e-10  70.400072      70.400002      70.400002      348914.04    
        37   0             -142400        -1.863157      -2.4665776     -1.5614466     -1.5614466     -1.0002329e-10 -6.3884398e-11 -4.7799102e-11  70.400072      70.400002      70.400002      348914.04    
        38   0             -142400        -1.863157      -2.4665776     -1.5614466     -1.5614466     -1.3640689e-10 -1.8483407e-10 -8.3689213e-11  70.400072      70.400002      70.400002      348914.04    
        39   0             -142400        -1.863157      -2.4665776     -1.5614466     -1.5614466     -6.5911373e-11 -3.3834586e-11  2.4721761e-10  70.400072      70.400002      70.400002      348914.04    
        40   0             -142400        -1.863157      -2.4665776     -1.5614466     -1.5614466     -1.4048939e-10 -1.8535611e-10 -1.275404e-10   70.400072      70.400002      70.400002      348914.04    
        41   0             -142400        -1.863157      -2.4665776     -1.5614466     -1.5614466      9.4076953e-11 -1.2864973e-10 -3.9870651e-11  70.400072      70.400002      70.400002      348914.04    
        42   0             -142400        -1.863157      -2.4665776     -1.5614466     -1.5614466     -8.8436496e-11 -1.8476882e-10  6.8811131e-11  70.400072      70.400002      70.400002      348914.04    
        43   0             -142400        -1.863157      -2.4665776     -1.5614466     -1.5614466     -2.0908437e-10  2.0307277e-10 -3.1423424e-10  70.400072      70.400002      70.400002      348914.04    
        44   0             -142400        -1.863157      -2.4665776     -1.5614466     -1.5614466     -2.2545515e-11 -1.6868352e-10 -4.4340601e-11  70.400072      70.400002      70.400002      348914.04    
        45   0             -142400        -1.863157      -2.4665776     -1.5614466     -1.5614466      8.6217835e-11 -9.7914748e-11  1.925015e-12   70.400072      70.400002      70.400002      348914.04    
        46   0             -142400        -1.863157      -2.4665776     -1.5614467     -1.5614467      2.9911145e-11 -1.6959709e-10  1.5250034e-10  70.400072      70.400002      70.400002      348914.04    
        47   0             -142400        -1.863157      -2.4665776     -1.5614466     -1.5614467      2.2431319e-13  2.2741279e-10  3.0653418e-10  70.400072      70.400002      70.400002      348914.04    
        48   0             -142400        -1.863157      -2.4665776     -1.5614467     -1.5614466     -3.0237418e-11 -5.7130531e-11 -2.8881751e-10  70.400072      70.400002      70.400002      348914.04    
        49   0             -142400        -1.863157      -2.4665776     -1.5614467     -1.5614466     -8.0108359e-11  6.2253029e-11  1.4907447e-10  70.400072      70.400002      70.400002      348914.04    
        50   0             -142400        -1.863157      -2.4665776     -1.5614467     -1.5614466     -9.7033809e-11 -1.202645e-10   3.9152848e-13  70.400072      70.400002      70.400002      348914.04    
        51   0             -142400        -1.863157      -2.4665776     -1.5614467     -1.5614467      1.5284701e-10  1.2926965e-10 -7.2237005e-11  70.400072      70.400002      70.400002      348914.04    
        52   0             -142400        -1.863157      -2.4665776     -1.5614467     -1.5614466     -1.0508054e-10 -5.8468253e-11 -2.248026e-11   70.400072      70.400002      70.400002      348914.04    
        53   0             -142400        -1.863157      -2.4665776     -1.5614466     -1.5614467     -8.1331886e-11 -1.9667781e-10 -3.8023941e-10  70.400072      70.400002      70.400002      348914.04    
        54   0             -142400        -1.863157      -2.4665776     -1.5614466     -1.5614466     -5.6400494e-11  8.8093909e-11  4.4699502e-11  70.400072      70.400002      70.400002      348914.04    
        55   0             -142400        -1.863157      -2.4665776     -1.5614467     -1.5614466      5.6127239e-11 -2.6395545e-11  4.3263897e-11  70.400072      70.400002      70.400002      348914.04    
        56   0             -142400        -1.863157      -2.4665776     -1.5614467     -1.5614466     -1.8949979e-10 -1.9253413e-10 -1.529245e-10   70.400072      70.400002      70.400002      348914.04    
        57   0             -142400        -1.863157      -2.4665776     -1.5614467     -1.5614467      2.7822993e-11 -1.0525591e-10  4.4014327e-11  70.400072      70.400002      70.400002      348914.04    
        58   0             -142400        -1.863157      -2.4665776     -1.5614467     -1.5614466      8.7041676e-11 -6.5678903e-11 -7.7979423e-11  70.400072      70.400002      70.400002      348914.04    
        59   0             -142400        -1.863157      -2.4665776     -1.5614467     -1.5614467      9.207037e-11  -2.4862059e-11 -1.7935267e-10  70.400072      70.400002      70.400002      348914.04    
        60   0             -142400        -1.863157      -2.4665776     -1.5614467     -1.5614466     -7.1617085e-12 -1.2189587e-10  1.3723073e-10  70.400072      70.400002      70.400002      348914.04    
        61   0             -142400        -1.863157      -2.4665776     -1.5614467     -1.5614467     -5.7175394e-11 -1.954706e-10   9.3966836e-11  70.400072      70.400002      70.400002      348914.04    
        62   0             -142400        -1.863157      -2.4665776     -1.5614466     -1.5614466     -8.5826306e-11 -5.8174607e-11  1.1471785e-10  70.400072      70.400002      70.400002      348914.04    
        63   0             -142400        -1.863157      -2.4665776     -1.5614466     -1.5614467     -5.9712172e-11 -1.4897659e-10 -1.66628e-10    70.400072      70.400002      70.400002      348914.04    
        64   0             -142400        -1.863157      -2.4665776     -1.5614467     -1.5614466     -3.9234417e-12 -2.1697203e-10 -1.0610422e-10  70.400072      70.400002      70.400002      348914.04    
        65   0             -142400        -1.863157      -2.4665776     -1.5614467     -1.5614466      5.1518623e-11  1.5511053e-10  1.8819469e-10  70.400072      70.400002      70.400002      348914.04    
        66   0             -142400        -1.863157      -2.4665776     -1.5614467     -1.5614467      7.0352774e-12 -1.3895998e-10  4.7387997e-10  70.400072      70.400002      70.400002      348914.04    
        67   0             -142400        -1.863157      -2.4665776     -1.5614467     -1.5614467      9.9309568e-12  1.6620384e-10 -2.5605963e-10  70.400072      70.400002      70.400002      348914.04    
        68   0             -142400        -1.863157      -2.4665776     -1.5614467     -1.5614467      2.0991636e-11  2.4480318e-10  3.7404021e-10  70.400072      70.400002      70.400002      348914.04    
        69   0             -142400        -1.863157      -2.4665776     -1.5614466     -1.5614467      1.6360181e-10  1.58047e-10    2.8190051e-10  70.400072      70.400002      70.400002      348914.04    
        70   0             -142400        -1.863157      -2.4665776     -1.5614467     -1.5614467      8.3371096e-11 -7.8468834e-11  3.4617643e-11  70.400072      70.400002      70.400002      348914.04    
        71   0             -142400        -1.863157      -2.4665776     -1.5614467     -1.5614467     -5.4850693e-11 -6.0850052e-11 -9.9839763e-11  70.400072      70.400002      70.400002      348914.04    
        72   0             -142400        -1.863157      -2.4665776     -1.5614467     -1.5614467     -1.285233e-10   9.1258764e-11  3.2297837e-10  70.400072      70.400002      70.400002      348914.04    
        73   0             -142400        -1.863157      -2.4665776     -1.5614467     -1.5614466     -9.000261e-11  -3.9749929e-10  8.4309133e-11  70.400072      70.400002      70.400002      348914.04    
        74   0             -142400        -1.863157      -2.4665776     -1.5614466     -1.5614467      2.7733268e-12  1.8075565e-10  5.354152e-11   70.400072      70.400002      70.400002      348914.04    
        75   0             -142400        -1.863157      -2.4665776     -1.5614467     -1.5614467     -6.2236715e-11 -7.5075587e-11 -1.4029771e-10  70.400072      70.400002      70.400002      348914.04    
        76   0             -142400        -1.863157      -2.4665776     -1.5614466     -1.5614467      1.8710575e-10  1.5462112e-10 -3.5433328e-11  70.400072      70.400002      70.400002      348914.04    
        77   0             -142400        -1.863157      -2.4665776     -1.5614466     -1.5614467      4.7595181e-12  4.4666874e-11 -2.5847405e-10  70.400072      70.400002      70.400002      348914.04    
        78   0             -142400        -1.863157      -2.4665776     -1.5614466     -1.5614467      9.2763702e-11  3.3870477e-10  3.1769274e-10  70.400072      70.400002      70.400002      348914.04    
        79   0             -142400        -1.863157      -2.4665776     -1.5614467     -1.5614467     -5.8317352e-11 -1.9054386e-10  2.4904474e-10  70.400072      70.400002      70.400002      348914.04    
        80   0             -142400        -1.863157      -2.4665776     -1.5614467     -1.5614467      4.2501233e-11 -1.9843969e-10 -1.1566404e-10  70.400072      70.400002      70.400002      348914.04    
        81   0             -142400        -1.863157      -2.4665776     -1.5614466     -1.5614467      3.5726974e-11 -1.3253239e-10 -6.3394987e-11  70.400072      70.400002      70.400002      348914.04    
        82   0             -142400        -1.863157      -2.4665776     -1.5614467     -1.5614467     -5.2163014e-12  4.8543006e-10  3.4878662e-11  70.400072      70.400002      70.400002      348914.04    
        83   0             -142400        -1.863157      -2.4665776     -1.5614467     -1.5614466      4.9630314e-11 -3.7994577e-10 -5.9577584e-11  70.400072      70.400002      70.400002      348914.04    
        84   0             -142400        -1.863157      -2.4665776     -1.5614466     -1.5614467     -4.0021552e-11  1.4724734e-10  6.8354348e-11  70.400072      70.400002      70.400002      348914.04    
        85   0             -142400        -1.863157      -2.4665776     -1.5614467     -1.5614467     -8.9431631e-11 -8.1176906e-11 -3.6183757e-11  70.400072      70.400002      70.400002      348914.04    
        86   0             -142400        -1.863157      -2.4665776     -1.5614466     -1.5614466      1.3093365e-10  6.248142e-11  -3.494718e-10   70.400072      70.400002      70.400002      348914.04    
        87   0             -142400        -1.863157      -2.4665776     -1.5614467     -1.5614467      8.6356501e-11  5.938182e-12   3.2986275e-11  70.400072      70.400002      70.400002      348914.04    
        88   0             -142400        -1.863157      -2.4665776     -1.5614467     -1.5614467      9.5178127e-11 -6.3199223e-11 -6.1600481e-11  70.400072      70.400002      70.400002      348914.04    
        89   0             -142400        -1.863157      -2.4665776     -1.5614467     -1.5614467     -1.9091092e-11 -1.6411569e-11 -8.199259e-11   70.400072      70.400002      70.400002      348914.04    
        90   0             -142400        -1.863157      -2.4665776     -1.5614467     -1.5614467      1.7391206e-10 -4.9463098e-11 -2.7025254e-10  70.400072      70.400002      70.400002      348914.04    
        91   0             -142400        -1.863157      -2.4665776     -1.5614467     -1.5614466     -2.7847463e-11 -2.5217697e-10 -9.3640562e-11  70.400072      70.400002      70.400002      348914.04    
        92   0             -142400        -1.863157      -2.4665776     -1.5614467     -1.5614467      7.6857857e-11 -2.0646602e-10  2.8124796e-11  70.400072      70.400002      70.400002      348914.04    
        93   0             -142400        -1.863157      -2.4665776     -1.5614467     -1.5614466      1.0510501e-10 -1.7569841e-10  4.0979981e-11  70.400072      70.400002      70.400002      348914.04    
        94   0             -142400        -1.863157      -2.4665776     -1.5614466     -1.5614466     -8.5483719e-11 -2.5547234e-11 -2.9119931e-10  70.400072      70.400002      70.400002      348914.04    
        95   0             -142400        -1.863157      -2.4665776     -1.5614466     -1.5614467      1.3304219e-10 -1.1908991e-10 -2.6268298e-10  70.400072      70.400002      70.400002      348914.04    
        96   0             -142400        -1.863157      -2.4665776     -1.5614467     -1.5614467      1.392781e-11  -3.3214666e-11  1.5031431e-10  70.400072      70.400002      70.400002      348914.04    
        97   0             -142400        -1.863157      -2.4665776     -1.5614466     -1.5614466     -6.6531293e-11 -2.1152326e-10  2.3804932e-10  70.400072      70.400002      70.400002      348914.04    
        98   0             -142400        -1.863157      -2.4665776     -1.5614466     -1.5614467      4.4573071e-11 -2.0271387e-10  2.171678e-10   70.400072      70.400002      70.400002      348914.04    
        99   0             -142400        -1.863157      -2.4665776     -1.5614467     -1.5614467     -6.1437344e-11  8.3656586e-11 -1.0770296e-10  70.400072      70.400002      70.400002      348914.04    
       100   0             -142400        -1.863157      -2.4665776     -1.5614467     -1.5614466      1.4295684e-10 -1.7442594e-10  5.3639402e-11  70.400072      70.400002      70.400002      348914.04    
       101   0             -142400        -1.863157      -2.4665776     -1.5614466     -1.5614467      1.7251724e-11  4.6330871e-12  2.2878314e-10  70.400072      70.400002      70.400002      348914.04    
       102   0             -142400        -1.863157      -2.4665776     -1.5614466     -1.5614466     -6.9904148e-12  1.0939958e-10 -4.0519935e-10  70.400072      70.400002      70.400002      348914.04    
       103   0             -142400        -1.863157      -2.4665776     -1.5614467     -1.5614467     -2.4013747e-11 -1.9008708e-10 -3.1426686e-10  70.400072      70.400002      70.400002      348914.04    
       104   0             -142400        -1.863157      -2.4665776     -1.5614467     -1.5614466     -6.6877959e-11 -2.213441e-10   8.9986296e-11  70.400072      70.400002      70.400002      348914.04    
       105   0             -142400        -1.863157      -2.4665776     -1.5614467     -1.5614467     -8.7645282e-11  2.2783695e-10  1.0799661e-10  70.400072      70.400002      70.400002      348914.04    
       106   0             -142400        -1.863157      -2.4665776     -1.5614466     -1.5614466      8.5059563e-11  1.3008534e-10 -2.3494972e-10  70.400072      70.400002      70.400002      348914.04    
       107   0             -142400        -1.863157      -2.4665776     -1.5614467     -1.5614466      2.7982051e-11  7.9415027e-11  2.4845745e-10  70.400072      70.400002      70.400002      348914.04    
       108   0             -142400        -1.863157      -2.4665776     -1.5614466     -1.5614467      2.7782209e-11 -3.54007e-11    8.1274788e-11  70.400072      70.400002      70.400002      348914.04    
       109   0             -142400        -1.863157      -2.4665776     -1.5614467     -1.5614466     -1.4699855e-10 -1.1076993e-10  5.5988573e-11  70.400072      70.400002      70.400002      348914.04    
       110   0             -142400        -1.863157      -2.4665776     -1.5614467     -1.5614466      7.7579738e-11 -2.0760798e-10  4.7257488e-10  70.400072      70.400002      70.400002      348914.04    
       111   0             -142400        -1.863157      -2.4665776     -1.5614467     -1.5614466      1.7270892e-10  1.9971215e-10  1.3559936e-10  70.400072      70.400002      70.400002      348914.04    
       112   0             -142400        -1.863157      -2.4665776     -1.5614467     -1.5614467     -7.2359358e-11  1.3142306e-10  2.3054502e-10  70.400072      70.400002      70.400002      348914.04    
       113   0             -142400        -1.863157      -2.4665776     -1.5614467     -1.5614466      1.3483262e-11  2.4111629e-11 -2.0304015e-10  70.400072      70.400002      70.400002      348914.04    
       114   0             -142400        -1.863157      -2.4665776     -1.5614466     -1.5614466      2.2638503e-10  1.863023e-10  -6.2546675e-11  70.400072      70.400002      70.400002      348914.04    
       115   0             -142400        -1.863157      -2.4665776     -1.5614467     -1.5614467      8.3322155e-12 -8.4537525e-11 -3.1580035e-10  70.400072      70.400002      70.400002      348914.04    
       116   0             -142400        -1.863157      -2.4665776     -1.5614466     -1.5614466      1.7816177e-10  1.3050949e-12 -4.0777692e-10  70.400072      70.400002      70.400002      348914.04    
       117   0             -142400        -1.863157      -2.4665776     -1.5614467     -1.5614466      1.9295013e-11  1.4356044e-10  1.5628512e-10  70.400072      70.400002      70.400002      348914.04    
       118   0             -142400        -1.863157      -2.4665776     -1.5614467     -1.5614466      1.4742679e-10 -1.0489701e-10 -5.2530072e-12  70.400072      70.400002      70.400002      348914.04    
       119   0             -142400        -1.863157      -2.4665776     -1.5614466     -1.5614466     -1.7104901e-11  6.062166e-11   1.6431145e-10  70.400072      70.400002      70.400002      348914.04    
       120   0             -142400        -1.863157      -2.4665776     -1.5614467     -1.5614466     -2.5123078e-11  8.5777365e-11 -1.2359249e-10  70.400072      70.400002      70.400002      348914.04    
       121   0             -142400        -1.863157      -2.4665776     -1.5614467     -1.5614467     -3.7138108e-11 -2.3984382e-10 -1.1563141e-10  70.400072      70.400002      70.400002      348914.04    
       122   0             -142400        -1.863157      -2.4665776     -1.5614467     -1.5614467      4.6416517e-11  2.4959941e-11  1.1856788e-10  70.400072      70.400002      70.400002      348914.04    
       123   0             -142400        -1.863157      -2.4665776     -1.5614467     -1.5614467     -9.2164174e-11 -3.2738307e-10  3.1456051e-10  70.400072      70.400002      70.400002      348914.04    
       124   0             -142400        -1.863157      -2.4665776     -1.5614467     -1.5614466     -9.5010912e-11 -5.7848333e-11 -2.9593028e-11  70.400072      70.400002      70.400002      348914.04    
Loop time of 2.8782 on 6 procs for 100 steps with 32000 atoms

99.7% CPU use with 6 MPI tasks x 1 OpenMP threads

Minimization stats:
  Stopping criterion = max iterations
  Energy initial, next-to-last, final = 
     -142399.999526111  -142399.999543291   -142399.99954329
  Force two-norm initial, final = 0.022070369 6.2021834e-09
  Force max component initial, final = 0.00023348663 7.9190387e-11
  Final line search alpha, max atom move = 1 7.9190387e-11
  Iterations, force evaluations = 100 200

MPI task timing breakdown:
Section |  min time  |  avg time  |  max time  |%varavg| %total
---------------------------------------------------------------
Pair    | 2.6307     | 2.7001     | 2.7514     |   2.7 | 93.81
Neigh   | 0          | 0          | 0          |   0.0 |  0.00
Comm    | 0.077044   | 0.12773    | 0.1968     |  12.1 |  4.44
Output  | 0.010982   | 0.011282   | 0.012155   |   0.4 |  0.39
Modify  | 0          | 0          | 0          |   0.0 |  0.00
Other   |            | 0.03904    |            |       |  1.36

Nlocal:        5333.33 ave        5428 max        5190 min
Histogram: 2 0 0 0 0 0 0 1 2 1
Nghost:          10061 ave       10262 max        9711 min
Histogram: 2 0 0 0 0 0 0 0 1 3
Neighs:         373333 ave      380266 max      361506 min
Histogram: 1 0 1 0 0 0 1 0 1 2

Total # of neighbors = 2240000
Ave neighs/atom = 70
Neighbor list builds = 0
Dangerous builds = 0

# Obtain new stress tensor

variable tmp equal pe
variable e1 equal ${tmp}
variable e1 equal -142399.99954329
variable tmp equal press
variable p1 equal ${tmp}
variable p1 equal -1.86315695292235
variable tmp equal pxx
variable pxx1 equal ${tmp}
variable pxx1 equal -2.46657755895371
variable tmp equal pyy
variable pyy1 equal ${tmp}
variable pyy1 equal -1.56144665013859
variable tmp equal pzz
variable pzz1 equal ${tmp}
variable pzz1 equal -1.56144664967476
variable tmp equal pxy
variable pxy1 equal ${tmp}
variable pxy1 equal -9.50109119334874e-11
variable tmp equal pxz
variable pxz1 equal ${tmp}
variable pxz1 equal -5.78483333990636e-11
variable tmp equal pyz
variable pyz1 equal ${tmp}
variable pyz1 equal -2.95930278584042e-11

# Compute elastic constant from pressure tensor

variable C1pos equal ${d1}
variable C1pos equal 241.321082037875
variable C2pos equal ${d2}
variable C2pos equal 150.807991127599
variable C3pos equal ${d3}
variable C3pos equal 150.807990572385
variable C4pos equal ${d4}
variable C4pos equal -8.64613517768786e-08
variable C5pos equal ${d5}
variable C5pos equal -8.53331122772791e-08
variable C6pos equal ${d6}
variable C6pos equal -4.49436461145546e-09

# Combine positive and negative

variable C1${dir} equal 0.5*(${C1neg}+${C1pos})
variable C11 equal 0.5*(${C1neg}+${C1pos})
variable C11 equal 0.5*(241.32144384475+${C1pos})
variable C11 equal 0.5*(241.32144384475+241.321082037875)
variable C2${dir} equal 0.5*(${C2neg}+${C2pos})
variable C21 equal 0.5*(${C2neg}+${C2pos})
variable C21 equal 0.5*(150.809007156476+${C2pos})
variable C21 equal 0.5*(150.809007156476+150.807991127599)
variable C3${dir} equal 0.5*(${C3neg}+${C3pos})
variable C31 equal 0.5*(${C3neg}+${C3pos})
variable C31 equal 0.5*(150.809007648315+${C3pos})
variable C31 equal 0.5*(150.809007648315+150.807990572385)
variable C4${dir} equal 0.5*(${C4neg}+${C4pos})
variable C41 equal 0.5*(${C4neg}+${C4pos})
variable C41 equal 0.5*(7.73485021851313e-08+${C4pos})
variable C41 equal 0.5*(7.73485021851313e-08+-8.64613517768786e-08)
variable C5${dir} equal 0.5*(${C5neg}+${C5pos})
variable C51 equal 0.5*(${C5neg}+${C5pos})
variable C51 equal 0.5*(1.1906987248713e-07+${C5pos})
variable C51 equal 0.5*(1.1906987248713e-07+-8.53331122772791e-08)
variable C6${dir} equal 0.5*(${C6neg}+${C6pos})
variable C61 equal 0.5*(${C6neg}+${C6pos})
variable C61 equal 0.5*(5.00088659752988e-09+${C6pos})
variable C61 equal 0.5*(5.00088659752988e-09+-4.49436461145546e-09)

# Delete dir to make sure it is not reused

variable dir delete

# uyy Perturbation

variable dir equal 2
include displace.mod
# NOTE: This script should not need to be
# modified. See in.elastic for more info.
#
# Find which reference length to use

if "${dir} == 1" then    "variable len0 equal ${lx0}"
if "${dir} == 2" then    "variable len0 equal ${ly0}"
variable len0 equal ${ly0}
variable len0 equal 70.400001813909
if "${dir} == 3" then    "variable len0 equal ${lz0}"
if "${dir} == 4" then    "variable len0 equal ${lz0}"
if "${dir} == 5" then    "variable len0 equal ${lz0}"
if "${dir} == 6" then    "variable len0 equal ${ly0}"

# Reset box and simulation parameters

clear
OMP_NUM_THREADS environment is not set. Defaulting to 1 thread. (src/comm.cpp:98)
  using 1 OpenMP thread(s) per MPI task
box tilt large
read_restart restart.equil
Reading restart file ...
  restart file = 24 Mar 2022, LAMMPS = 24 Mar 2022
  restoring atom style atomic from restart
  triclinic box = (0.079999093 0.079999093 0.079999093) to (70.480001 70.480001 70.480001) with tilt (0 0 0)
  1 by 2 by 3 MPI processor grid
  pair style eam/alloy stores no restart info
  32000 atoms
  read_restart CPU = 0.003 seconds
include potential.mod
# NOTE: This script can be modified for different pair styles
# See in.elastic for more info.

# Choose potential
pair_style eam/alloy
pair_coeff * * Mishin-Ni-Al-2009.eam.alloy Ni


# Setup neighbor style
neighbor 1.0 nsq
neigh_modify once no every 1 delay 0 check yes

# Setup minimization style
min_style	     cg
min_modify	     dmax ${dmax} line quadratic
min_modify	     dmax 0.01 line quadratic

# Setup output
thermo		1
thermo_style custom step temp pe press pxx pyy pzz pxy pxz pyz lx ly lz vol
thermo_modify norm no

# Negative deformation

variable delta equal -${up}*${len0}
variable delta equal -1e-06*${len0}
variable delta equal -1e-06*70.400001813909
variable deltaxy equal -${up}*xy
variable deltaxy equal -1e-06*xy
variable deltaxz equal -${up}*xz
variable deltaxz equal -1e-06*xz
variable deltayz equal -${up}*yz
variable deltayz equal -1e-06*yz
if "${dir} == 1" then    "change_box all x delta 0 ${delta} xy delta ${deltaxy} xz delta ${deltaxz} remap units box"
if "${dir} == 2" then    "change_box all y delta 0 ${delta} yz delta ${deltayz} remap units box"
change_box all y delta 0 ${delta} yz delta ${deltayz} remap units box
change_box all y delta 0 -7.0400001813909e-05 yz delta ${deltayz} remap units box
change_box all y delta 0 -7.0400001813909e-05 yz delta -0 remap units box
Changing box ...
  triclinic box = (0.079999093 0.079999093 0.079999093) to (70.480001 70.479931 70.480001) with tilt (0 0 0)
  triclinic box = (0.079999093 0.079999093 0.079999093) to (70.480001 70.479931 70.480001) with tilt (0 0 0)
if "${dir} == 3" then    "change_box all z delta 0 ${delta} remap units box"
if "${dir} == 4" then    "change_box all yz delta ${delta} remap units box"
if "${dir} == 5" then    "change_box all xz delta ${delta} remap units box"
if "${dir} == 6" then    "change_box all xy delta ${delta} remap units box"

# Relax atoms positions

minimize ${etol} ${ftol} ${maxiter} ${maxeval}
minimize 0 ${ftol} ${maxiter} ${maxeval}
minimize 0 1e-10 ${maxiter} ${maxeval}
minimize 0 1e-10 100 ${maxeval}
minimize 0 1e-10 100 1000
Neighbor list info ...
  update every 1 steps, delay 0 steps, check yes
  max neighbors/atom: 2000, page size: 100000
  master list distance cutoff = 7.28721
  ghost atom cutoff = 7.28721
  1 neighbor lists, perpetual/occasional/extra = 1 0 0
  (1) pair eam/alloy, perpetual
      attributes: half, newton on
      pair build: half/nsq/newton
      stencil: none
      bin: none
Per MPI rank memory allocation (min/avg/max) = 5.97 | 5.985 | 5.992 Mbytes
   Step          Temp          PotEng         Press           Pxx            Pyy            Pzz            Pxy            Pxz            Pyz             Lx             Ly             Lz           Volume    
        24   0             -142400         1.7565676      1.4548598      2.3599834      1.4548597      5.1831659e-07 -7.929205e-08  -1.1039016e-06  70.400002      70.399931      70.400002      348913.34    
        25   0             -142400         1.7564474      1.4547392      2.3598636      1.4547393     -4.4882525e-08  8.9820664e-08 -1.3251621e-07  70.400002      70.399931      70.400002      348913.34    
        26   0             -142400         1.7564343      1.4547262      2.3598506      1.4547262      1.2334991e-08  6.0973179e-09 -6.854989e-08   70.400002      70.399931      70.400002      348913.34    
        27   0             -142400         1.7564322      1.4547241      2.3598485      1.4547241      4.5753254e-09  2.8346719e-10 -1.2623948e-08  70.400002      70.399931      70.400002      348913.34    
        28   0             -142400         1.7564317      1.4547236      2.3598479      1.4547236      6.0481687e-09 -3.1527894e-09 -4.8979985e-09  70.400002      70.399931      70.400002      348913.34    
        29   0             -142400         1.7564316      1.4547234      2.3598478      1.4547234      2.9528893e-09 -3.4190293e-10 -2.3549833e-09  70.400002      70.399931      70.400002      348913.34    
        30   0             -142400         1.7564315      1.4547234      2.3598477      1.4547234      8.2349209e-10 -2.3142642e-10 -1.8430914e-09  70.400002      70.399931      70.400002      348913.34    
        31   0             -142400         1.7564315      1.4547234      2.3598477      1.4547234      8.9843731e-11  2.7403786e-10 -1.2622577e-09  70.400002      70.399931      70.400002      348913.34    
        32   0             -142400         1.7564315      1.4547233      2.3598477      1.4547233     -1.3349109e-10  1.3439242e-10 -5.5052278e-10  70.400002      70.399931      70.400002      348913.34    
        33   0             -142400         1.7564315      1.4547233      2.3598477      1.4547233      6.83137e-11   -2.7165606e-10 -2.0268165e-10  70.400002      70.399931      70.400002      348913.34    
        34   0             -142400         1.7564315      1.4547233      2.3598477      1.4547233     -2.3353905e-10  4.4960611e-11 -3.7802151e-10  70.400002      70.399931      70.400002      348913.34    
        35   0             -142400         1.7564315      1.4547233      2.3598477      1.4547233     -4.4263199e-11 -3.5205007e-11 -9.8502238e-11  70.400002      70.399931      70.400002      348913.34    
        36   0             -142400         1.7564315      1.4547233      2.3598477      1.4547233     -4.3382258e-11 -3.8389445e-10  3.2823203e-10  70.400002      70.399931      70.400002      348913.34    
        37   0             -142400         1.7564315      1.4547233      2.3598477      1.4547233      4.7065081e-11 -1.6454017e-10  3.1211408e-10  70.400002      70.399931      70.400002      348913.34    
        38   0             -142400         1.7564315      1.4547233      2.3598477      1.4547233     -6.4679819e-11  1.151096e-10  -3.0679581e-10  70.400002      70.399931      70.400002      348913.34    
        39   0             -142400         1.7564315      1.4547233      2.3598477      1.4547233     -1.0619824e-10  5.2693314e-11 -1.6424653e-10  70.400002      70.399931      70.400002      348913.34    
        40   0             -142400         1.7564315      1.4547233      2.3598477      1.4547233     -4.8835119e-11 -1.3230426e-10 -1.9308918e-10  70.400002      70.399931      70.400002      348913.34    
        41   0             -142400         1.7564315      1.4547233      2.3598477      1.4547233     -2.5961245e-10 -1.2336435e-10  2.3100227e-10  70.400002      70.399931      70.400002      348913.34    
        42   0             -142400         1.7564315      1.4547233      2.3598477      1.4547233     -6.979417e-11  -2.2839207e-13  3.658841e-10   70.400002      70.399931      70.400002      348913.34    
        43   0             -142400         1.7564315      1.4547233      2.3598477      1.4547233     -1.8140448e-10 -3.1054796e-10  1.2760591e-10  70.400002      70.399931      70.400002      348913.34    
        44   0             -142400         1.7564315      1.4547233      2.3598477      1.4547233      1.5246802e-10  2.3462391e-10  1.2356011e-10  70.400002      70.399931      70.400002      348913.34    
        45   0             -142400         1.7564315      1.4547233      2.3598477      1.4547233      3.4870575e-11  2.6144367e-10  5.274878e-10   70.400002      70.399931      70.400002      348913.34    
        46   0             -142400         1.7564315      1.4547233      2.3598477      1.4547233      1.3788356e-10  5.9642958e-11  3.9772848e-11  70.400002      70.399931      70.400002      348913.34    
        47   0             -142400         1.7564315      1.4547233      2.3598477      1.4547233     -1.4670112e-11 -1.8578064e-10  3.1195094e-10  70.400002      70.399931      70.400002      348913.34    
        48   0             -142400         1.7564315      1.4547233      2.3598477      1.4547233      6.6400917e-11 -1.3638269e-11 -4.675512e-11   70.400002      70.399931      70.400002      348913.34    
        49   0             -142400         1.7564315      1.4547233      2.3598477      1.4547233     -2.0392149e-14 -1.6617155e-10 -1.8251789e-10  70.400002      70.399931      70.400002      348913.34    
        50   0             -142400         1.7564315      1.4547233      2.3598477      1.4547233     -1.2142301e-10  1.6584527e-10  3.7368206e-10  70.400002      70.399931      70.400002      348913.34    
        51   0             -142400         1.7564315      1.4547233      2.3598477      1.4547233      2.9054734e-11  4.5159638e-10 -3.0082499e-11  70.400002      70.399931      70.400002      348913.34    
        52   0             -142400         1.7564315      1.4547233      2.3598477      1.4547233      4.7558571e-11  2.0010408e-10  3.1028694e-11  70.400002      70.399931      70.400002      348913.34    
[...]
        84   0             -142400        -0.053365154   -0.05336557    -0.053363476   -0.053366416   -1.273403       4.2480883e-11 -4.4046998e-11  70.400002      70.400002      70.400002      348913.69    
        85   0             -142400        -0.053365154   -0.05336557    -0.053363476   -0.053366416   -1.273403       1.3475119e-11 -3.2790543e-10  70.400002      70.400002      70.400002      348913.69    
        86   0             -142400        -0.053365154   -0.05336557    -0.053363476   -0.053366416   -1.273403       5.2693261e-11 -2.0499799e-10  70.400002      70.400002      70.400002      348913.69    
        87   0             -142400        -0.053365154   -0.05336557    -0.053363476   -0.053366416   -1.273403       1.4215761e-10  1.1282557e-10  70.400002      70.400002      70.400002      348913.69    
        88   0             -142400        -0.053365154   -0.05336557    -0.053363476   -0.053366416   -1.273403      -3.0252131e-10  2.4180171e-10  70.400002      70.400002      70.400002      348913.69    
        89   0             -142400        -0.053365154   -0.05336557    -0.053363476   -0.053366416   -1.273403      -2.0558529e-10  1.6871632e-10  70.400002      70.400002      70.400002      348913.69    
        90   0             -142400        -0.053365154   -0.05336557    -0.053363476   -0.053366416   -1.273403      -1.027437e-10  -2.1827735e-11  70.400002      70.400002      70.400002      348913.69    
        91   0             -142400        -0.053365154   -0.05336557    -0.053363476   -0.053366416   -1.273403      -5.3117417e-11  1.3634993e-10  70.400002      70.400002      70.400002      348913.69    
        92   0             -142400        -0.053365154   -0.05336557    -0.053363476   -0.053366416   -1.273403       1.1184675e-10 -3.9795647e-10  70.400002      70.400002      70.400002      348913.69    
        93   0             -142400        -0.053365154   -0.05336557    -0.053363476   -0.053366416   -1.273403       1.9625385e-10  2.9136274e-11  70.400002      70.400002      70.400002      348913.69    
        94   0             -142400        -0.053365154   -0.05336557    -0.053363476   -0.053366416   -1.273403      -2.5990992e-10 -3.6085911e-11  70.400002      70.400002      70.400002      348913.69    
        95   0             -142400        -0.053365154   -0.05336557    -0.053363476   -0.053366416   -1.273403      -1.8956523e-11 -1.5772088e-10  70.400002      70.400002      70.400002      348913.69    
        96   0             -142400        -0.053365154   -0.05336557    -0.053363476   -0.053366416   -1.273403      -1.9520977e-10 -2.8486988e-10  70.400002      70.400002      70.400002      348913.69    
        97   0             -142400        -0.053365154   -0.05336557    -0.053363476   -0.053366416   -1.273403       1.4049361e-10  8.1699025e-11  70.400002      70.400002      70.400002      348913.69    
        98   0             -142400        -0.053365154   -0.05336557    -0.053363476   -0.053366416   -1.273403       1.1028063e-10 -3.2425116e-10  70.400002      70.400002      70.400002      348913.69    
        99   0             -142400        -0.053365154   -0.05336557    -0.053363476   -0.053366416   -1.273403      -2.4731574e-11  6.6886183e-12  70.400002      70.400002      70.400002      348913.69    
       100   0             -142400        -0.053365154   -0.05336557    -0.053363476   -0.053366416   -1.273403       3.2790543e-11 -2.4796829e-12  70.400002      70.400002      70.400002      348913.69    
       101   0             -142400        -0.053365154   -0.05336557    -0.053363476   -0.053366416   -1.273403       1.5041234e-11  6.1959444e-11  70.400002      70.400002      70.400002      348913.69    
       102   0             -142400        -0.053365154   -0.05336557    -0.053363476   -0.053366416   -1.273403      -1.4744325e-10 -3.4085851e-10  70.400002      70.400002      70.400002      348913.69    
       103   0             -142400        -0.053365154   -0.05336557    -0.053363476   -0.053366416   -1.273403       4.0709215e-10  6.0719603e-11  70.400002      70.400002      70.400002      348913.69    
       104   0             -142400        -0.053365154   -0.05336557    -0.053363476   -0.053366416   -1.273403       2.1860362e-10 -1.163167e-10   70.400002      70.400002      70.400002      348913.69    
       105   0             -142400        -0.053365154   -0.05336557    -0.053363476   -0.053366416   -1.273403       4.8419071e-11 -1.3093378e-10  70.400002      70.400002      70.400002      348913.69    
       106   0             -142400        -0.053365154   -0.05336557    -0.053363476   -0.053366416   -1.273403      -9.4586851e-11  9.1683012e-12  70.400002      70.400002      70.400002      348913.69    
       107   0             -142400        -0.053365154   -0.05336557    -0.053363476   -0.053366416   -1.273403       4.6898634e-10  5.9022978e-11  70.400002      70.400002      70.400002      348913.69    
       108   0             -142400        -0.053365154   -0.05336557    -0.053363476   -0.053366416   -1.273403      -2.613129e-10  -1.2874774e-10  70.400002      70.400002      70.400002      348913.69    
       109   0             -142400        -0.053365154   -0.05336557    -0.053363476   -0.053366416   -1.273403      -5.4487768e-11 -2.6803414e-10  70.400002      70.400002      70.400002      348913.69    
       110   0             -142400        -0.053365154   -0.05336557    -0.053363476   -0.053366416   -1.273403      -3.0516413e-10 -1.6542095e-11  70.400002      70.400002      70.400002      348913.69    
       111   0             -142400        -0.053365154   -0.05336557    -0.053363476   -0.053366416   -1.273403      -3.9368228e-10  2.5710396e-11  70.400002      70.400002      70.400002      348913.69    
       112   0             -142400        -0.053365154   -0.05336557    -0.053363476   -0.053366416   -1.273403       7.6184994e-11 -1.4219024e-10  70.400002      70.400002      70.400002      348913.69    
       113   0             -142400        -0.053365154   -0.05336557    -0.053363476   -0.053366416   -1.273403       3.031086e-11   1.0492974e-10  70.400002      70.400002      70.400002      348913.69    
       114   0             -142400        -0.053365154   -0.05336557    -0.053363476   -0.053366416   -1.273403       1.4519196e-11  8.5451177e-11  70.400002      70.400002      70.400002      348913.69    
       115   0             -142400        -0.053365154   -0.05336557    -0.053363476   -0.053366416   -1.273403      -1.6020056e-10  5.6902196e-11  70.400002      70.400002      70.400002      348913.69    
       116   0             -142400        -0.053365154   -0.05336557    -0.053363476   -0.053366416   -1.273403       9.3151245e-11  3.9479162e-11  70.400002      70.400002      70.400002      348913.69    
       117   0             -142400        -0.053365154   -0.05336557    -0.053363476   -0.053366416   -1.273403      -2.7146002e-10 -2.2937067e-11  70.400002      70.400002      70.400002      348913.69    
       118   0             -142400        -0.053365154   -0.05336557    -0.053363476   -0.053366416   -1.273403       9.4293204e-11 -2.7876856e-10  70.400002      70.400002      70.400002      348913.69    
       119   0             -142400        -0.053365154   -0.05336557    -0.053363476   -0.053366416   -1.273403       1.3775291e-10 -4.9231493e-10  70.400002      70.400002      70.400002      348913.69    
       120   0             -142400        -0.053365154   -0.05336557    -0.053363476   -0.053366416   -1.273403      -6.1404779e-11  7.8077383e-11  70.400002      70.400002      70.400002      348913.69    
       121   0             -142400        -0.053365154   -0.05336557    -0.053363476   -0.053366416   -1.273403       4.6755073e-11 -1.7520917e-11  70.400002      70.400002      70.400002      348913.69    
       122   0             -142400        -0.053365154   -0.05336557    -0.053363476   -0.053366416   -1.273403       4.6755073e-11 -1.7520917e-11  70.400002      70.400002      70.400002      348913.69    
Loop time of 3.18914 on 6 procs for 98 steps with 32000 atoms

99.6% CPU use with 6 MPI tasks x 1 OpenMP threads

Minimization stats:
  Stopping criterion = linesearch alpha is zero
  Energy initial, next-to-last, final = 
     -142399.999526248  -142399.999543447  -142399.999543447
  Force two-norm initial, final = 0.022070416 8.5670541e-09
  Force max component initial, final = 0.00023348721 1.2046677e-10
  Final line search alpha, max atom move = 0.5 6.0233384e-11
  Iterations, force evaluations = 98 197

MPI task timing breakdown:
Section |  min time  |  avg time  |  max time  |%varavg| %total
---------------------------------------------------------------
Pair    | 2.8178     | 2.8841     | 2.9432     |   2.7 | 90.43
Neigh   | 0          | 0          | 0          |   0.0 |  0.00
Comm    | 0.19135    | 0.25066    | 0.31685    |   9.0 |  7.86
Output  | 0.011573   | 0.011922   | 0.012945   |   0.4 |  0.37
Modify  | 0          | 0          | 0          |   0.0 |  0.00
Other   |            | 0.04251    |            |       |  1.33

Nlocal:        5333.33 ave        5428 max        5190 min
Histogram: 2 0 0 0 0 0 0 1 2 1
Nghost:          10061 ave       10262 max        9711 min
Histogram: 2 0 0 0 0 0 0 0 1 3
Neighs:         373333 ave      380266 max      361506 min
Histogram: 1 0 1 0 0 0 1 0 1 2

Total # of neighbors = 2240000
Ave neighs/atom = 70
Neighbor list builds = 0
Dangerous builds = 0

# Obtain new stress tensor

variable tmp equal pe
variable e1 equal ${tmp}
variable e1 equal -142399.999543447
variable tmp equal press
variable p1 equal ${tmp}
variable p1 equal -0.0533651540925787
variable tmp equal pxx
variable pxx1 equal ${tmp}
variable pxx1 equal -0.0533655699761156
variable tmp equal pyy
variable pyy1 equal ${tmp}
variable pyy1 equal -0.0533634759361328
variable tmp equal pzz
variable pzz1 equal ${tmp}
variable pzz1 equal -0.0533664163654878
variable tmp equal pxy
variable pxy1 equal ${tmp}
variable pxy1 equal -1.27340301512531
variable tmp equal pxz
variable pxz1 equal ${tmp}
variable pxz1 equal 4.67550731288888e-11
variable tmp equal pyz
variable pyz1 equal ${tmp}
variable pyz1 equal -1.75209171459967e-11

# Compute elastic constant from pressure tensor

variable C1pos equal ${d1}
variable C1pos equal -0.000116859884279757
variable C2pos equal ${d2}
variable C2pos equal -0.000326292646880139
variable C3pos equal ${d3}
variable C3pos equal -3.27585423003096e-05
variable C4pos equal ${d4}
variable C4pos equal -8.76685628481193e-08
variable C5pos equal ${d5}
variable C5pos equal -9.57934529300743e-08
variable C6pos equal ${d6}
variable C6pos equal 127.340301498536

# Combine positive and negative

variable C1${dir} equal 0.5*(${C1neg}+${C1pos})
variable C16 equal 0.5*(${C1neg}+${C1pos})
variable C16 equal 0.5*(0.00011685904900971+${C1pos})
variable C16 equal 0.5*(0.00011685904900971+-0.000116859884279757)
variable C2${dir} equal 0.5*(${C2neg}+${C2pos})
variable C26 equal 0.5*(${C2neg}+${C2pos})
variable C26 equal 0.5*(0.000326309874149749+${C2pos})
variable C26 equal 0.5*(0.000326309874149749+-0.000326292646880139)
variable C3${dir} equal 0.5*(${C3neg}+${C3pos})
variable C36 equal 0.5*(${C3neg}+${C3pos})
variable C36 equal 0.5*(3.27515469800144e-05+${C3pos})
variable C36 equal 0.5*(3.27515469800144e-05+-3.27585423003096e-05)
variable C4${dir} equal 0.5*(${C4neg}+${C4pos})
variable C46 equal 0.5*(${C4neg}+${C4pos})
variable C46 equal 0.5*(1.04670704235045e-07+${C4pos})
variable C46 equal 0.5*(1.04670704235045e-07+-8.76685628481193e-08)
variable C5${dir} equal 0.5*(${C5neg}+${C5pos})
variable C56 equal 0.5*(${C5neg}+${C5pos})
variable C56 equal 0.5*(9.0132597949012e-08+${C5pos})
variable C56 equal 0.5*(9.0132597949012e-08+-9.57934529300743e-08)
variable C6${dir} equal 0.5*(${C6neg}+${C6pos})
variable C66 equal 0.5*(${C6neg}+${C6pos})
variable C66 equal 0.5*(127.340301535049+${C6pos})
variable C66 equal 0.5*(127.340301535049+127.340301498536)

# Delete dir to make sure it is not reused

variable dir delete

# Output final values

variable C11all equal ${C11}
variable C11all equal 241.321262941313
variable C22all equal ${C22}
variable C22all equal 241.321262944015
variable C33all equal ${C33}
variable C33all equal 241.321262918421

variable C12all equal 0.5*(${C12}+${C21})
variable C12all equal 0.5*(150.808499130605+${C21})
variable C12all equal 0.5*(150.808499130605+150.808499142038)
variable C13all equal 0.5*(${C13}+${C31})
variable C13all equal 0.5*(150.808499130683+${C31})
variable C13all equal 0.5*(150.808499130683+150.80849911035)
variable C23all equal 0.5*(${C23}+${C32})
variable C23all equal 0.5*(150.80849912481+${C32})
variable C23all equal 0.5*(150.80849912481+150.808499142769)

variable C44all equal ${C44}
variable C44all equal 127.340301530615
variable C55all equal ${C55}
variable C55all equal 127.340301534994
variable C66all equal ${C66}
variable C66all equal 127.340301516792

variable C14all equal 0.5*(${C14}+${C41})
variable C14all equal 0.5*(-1.56614998750917e-10+${C41})
variable C14all equal 0.5*(-1.56614998750917e-10+-4.55642479587365e-09)
variable C15all equal 0.5*(${C15}+${C51})
variable C15all equal 0.5*(-5.22034846001606e-10+${C51})
variable C15all equal 0.5*(-5.22034846001606e-10+1.68683801049254e-08)
variable C16all equal 0.5*(${C16}+${C61})
variable C16all equal 0.5*(-4.17635023501508e-10+${C61})
variable C16all equal 0.5*(-4.17635023501508e-10+2.5326099303721e-10)

variable C24all equal 0.5*(${C24}+${C42})
variable C24all equal 0.5*(-6.05564487399598e-09+${C42})
variable C24all equal 0.5*(-6.05564487399598e-09+1.05761776727811e-08)
variable C25all equal 0.5*(${C25}+${C52})
variable C25all equal 0.5*(8.87465101400027e-10+${C52})
variable C25all equal 0.5*(8.87465101400027e-10+1.8924028864275e-09)
variable C26all equal 0.5*(${C26}+${C62})
variable C26all equal 0.5*(8.61363480498742e-09+${C62})
variable C26all equal 0.5*(8.61363480498742e-09+1.18947868588105e-09)

variable C34all equal 0.5*(${C34}+${C43})
variable C34all equal 0.5*(8.73109501351214e-09+${C43})
variable C34all equal 0.5*(8.73109501351214e-09+4.55312938869145e-09)
variable C35all equal 0.5*(${C35}+${C53})
variable C35all equal 0.5*(-5.74242493798518e-09+${C53})
variable C35all equal 0.5*(-5.74242493798518e-09+4.399811862563e-09)
variable C36all equal 0.5*(${C36}+${C63})
variable C36all equal 0.5*(-3.49766014759849e-09+${C63})
variable C36all equal 0.5*(-3.49766014759849e-09+9.22755729848499e-10)

variable C45all equal 0.5*(${C45}+${C54})
variable C45all equal 0.5*(-1.13494432574208e-08+${C54})
variable C45all equal 0.5*(-1.13494432574208e-08+9.33306955235075e-09)
variable C46all equal 0.5*(${C46}+${C64})
variable C46all equal 0.5*(8.50107069346285e-09+${C64})
variable C46all equal 0.5*(8.50107069346285e-09+-1.2988358656657e-08)
variable C56all equal 0.5*(${C56}+${C65})
variable C56all equal 0.5*(-2.83042749053115e-09+${C65})
variable C56all equal 0.5*(-2.83042749053115e-09+-1.31920760243112e-08)

# Average moduli for cubic crystals

variable C11cubic equal (${C11all}+${C22all}+${C33all})/3.0
variable C11cubic equal (241.321262941313+${C22all}+${C33all})/3.0
variable C11cubic equal (241.321262941313+241.321262944015+${C33all})/3.0
variable C11cubic equal (241.321262941313+241.321262944015+241.321262918421)/3.0
variable C12cubic equal (${C12all}+${C13all}+${C23all})/3.0
variable C12cubic equal (150.808499136321+${C13all}+${C23all})/3.0
variable C12cubic equal (150.808499136321+150.808499120517+${C23all})/3.0
variable C12cubic equal (150.808499136321+150.808499120517+150.808499133789)/3.0
variable C44cubic equal (${C44all}+${C55all}+${C66all})/3.0
variable C44cubic equal (127.340301530615+${C55all}+${C66all})/3.0
variable C44cubic equal (127.340301530615+127.340301534994+${C66all})/3.0
variable C44cubic equal (127.340301530615+127.340301534994+127.340301516792)/3.0

variable bulkmodulus equal (${C11cubic}+2*${C12cubic})/3.0
variable bulkmodulus equal (241.321262934583+2*${C12cubic})/3.0
variable bulkmodulus equal (241.321262934583+2*150.808499130209)/3.0
variable shearmodulus1 equal ${C44cubic}
variable shearmodulus1 equal 127.340301527467
variable shearmodulus2 equal (${C11cubic}-${C12cubic})/2.0
variable shearmodulus2 equal (241.321262934583-${C12cubic})/2.0
variable shearmodulus2 equal (241.321262934583-150.808499130209)/2.0
variable poissonratio equal 1.0/(1.0+${C11cubic}/${C12cubic})
variable poissonratio equal 1.0/(1.0+241.321262934583/${C12cubic})
variable poissonratio equal 1.0/(1.0+241.321262934583/150.808499130209)

# For Stillinger-Weber silicon, the analytical results
# are known to be (E. R. Cowley, 1988):
#               C11 = 151.4 GPa
#               C12 = 76.4 GPa
#               C44 = 56.4 GPa

print "========================================="
=========================================
print "Components of the Elastic Constant Tensor"
Components of the Elastic Constant Tensor
print "========================================="
=========================================

print "Elastic Constant C11all = ${C11all} ${cunits}"
Elastic Constant C11all = 241.321262941313 GPa
print "Elastic Constant C22all = ${C22all} ${cunits}"
Elastic Constant C22all = 241.321262944015 GPa
print "Elastic Constant C33all = ${C33all} ${cunits}"
Elastic Constant C33all = 241.321262918421 GPa

print "Elastic Constant C12all = ${C12all} ${cunits}"
Elastic Constant C12all = 150.808499136321 GPa
print "Elastic Constant C13all = ${C13all} ${cunits}"
Elastic Constant C13all = 150.808499120517 GPa
print "Elastic Constant C23all = ${C23all} ${cunits}"
Elastic Constant C23all = 150.808499133789 GPa

print "Elastic Constant C44all = ${C44all} ${cunits}"
Elastic Constant C44all = 127.340301530615 GPa
print "Elastic Constant C55all = ${C55all} ${cunits}"
Elastic Constant C55all = 127.340301534994 GPa
print "Elastic Constant C66all = ${C66all} ${cunits}"
Elastic Constant C66all = 127.340301516792 GPa

print "Elastic Constant C14all = ${C14all} ${cunits}"
Elastic Constant C14all = -2.35651989731228e-09 GPa
print "Elastic Constant C15all = ${C15all} ${cunits}"
Elastic Constant C15all = 8.1731726294619e-09 GPa
print "Elastic Constant C16all = ${C16all} ${cunits}"
Elastic Constant C16all = -8.2187015232149e-11 GPa

print "Elastic Constant C24all = ${C24all} ${cunits}"
Elastic Constant C24all = 2.26026639939256e-09 GPa
print "Elastic Constant C25all = ${C25all} ${cunits}"
Elastic Constant C25all = 1.38993399391376e-09 GPa
print "Elastic Constant C26all = ${C26all} ${cunits}"
Elastic Constant C26all = 4.90155674543424e-09 GPa

print "Elastic Constant C34all = ${C34all} ${cunits}"
Elastic Constant C34all = 6.64211220110179e-09 GPa
print "Elastic Constant C35all = ${C35all} ${cunits}"
Elastic Constant C35all = -6.7130653771109e-10 GPa
print "Elastic Constant C36all = ${C36all} ${cunits}"
Elastic Constant C36all = -1.287452208875e-09 GPa

print "Elastic Constant C45all = ${C45all} ${cunits}"
Elastic Constant C45all = -1.00818685253503e-09 GPa
print "Elastic Constant C46all = ${C46all} ${cunits}"
Elastic Constant C46all = -2.24364398159708e-09 GPa
print "Elastic Constant C56all = ${C56all} ${cunits}"
Elastic Constant C56all = -8.01125175742117e-09 GPa

print "========================================="
=========================================
print "Average properties for a cubic crystal"
Average properties for a cubic crystal
print "========================================="
=========================================

print "Bulk Modulus = ${bulkmodulus} ${cunits}"
Bulk Modulus = 180.979420398334 GPa
print "Shear Modulus 1 = ${shearmodulus1} ${cunits}"
Shear Modulus 1 = 127.340301527467 GPa
print "Shear Modulus 2 = ${shearmodulus2} ${cunits}"
Shear Modulus 2 = 45.256381902187 GPa
print "Poisson Ratio = ${poissonratio}"
Poisson Ratio = 0.384588250420254
Total wall time: 0:00:41
