LAMMPS (24 Mar 2022)
OMP_NUM_THREADS environment is not set. Defaulting to 1 thread. (src/comm.cpp:98)
  using 1 OpenMP thread(s) per MPI task
package gpu 0
################################################################################
# LAMMPS input file                                                            #
#                                                                              #
# Attempted recreation of approximate setup of Zhao, et al.                    #
# Using nial09 eam, impactor at uP = 3 km/s                                    #
#                                                                              #
# richard terrett, 2018                                                        #
#                                                                              #
################################################################################

# variables

variable al_fcc_a equal 4.064
variable ni_fcc_a equal 3.528
variable v_up     equal 30
variable    box_x equal 514.00
variable   box_yz equal 100
variable  half_yz equal ${box_yz}/2
variable  half_yz equal 100/2
variable void_radius equal 20

# simulation construction

units      metal
dimension  3
boundary   p p p
atom_style atomic
timestep   0.001

# lattice construction

region       simulation_box block 0.00   ${box_x} 0.00 ${box_yz} 0.00 ${box_yz}
region       simulation_box block 0.00   514 0.00 ${box_yz} 0.00 ${box_yz}
region       simulation_box block 0.00   514 0.00 100 0.00 ${box_yz}
region       simulation_box block 0.00   514 0.00 100 0.00 100
create_box 2 simulation_box
Created orthogonal box = (0 0 0) to (514 100 100)
  1 by 1 by 1 MPI processor grid
region       al_a    block          0.00  14.00 0.00 ${box_yz} 0.00 ${box_yz}
region       al_a    block          0.00  14.00 0.00 100 0.00 ${box_yz}
region       al_a    block          0.00  14.00 0.00 100 0.00 100
region       ni_a    block         14.00  70.00 0.00 ${box_yz} 0.00 ${box_yz}
region       ni_a    block         14.00  70.00 0.00 100 0.00 ${box_yz}
region       ni_a    block         14.00  70.00 0.00 100 0.00 100
region       al_b    block         70.00  98.00 0.00 ${box_yz} 0.00 ${box_yz}
region       al_b    block         70.00  98.00 0.00 100 0.00 ${box_yz}
region       al_b    block         70.00  98.00 0.00 100 0.00 100
region       ni_b    block         98.00 154.00 0.00 ${box_yz} 0.00 ${box_yz}
region       ni_b    block         98.00 154.00 0.00 100 0.00 ${box_yz}
region       ni_b    block         98.00 154.00 0.00 100 0.00 100
region       al_c    block        154.00 182.00 0.00 ${box_yz} 0.00 ${box_yz}
region       al_c    block        154.00 182.00 0.00 100 0.00 ${box_yz}
region       al_c    block        154.00 182.00 0.00 100 0.00 100
region       ni_c    block        182.00 238.00 0.00 ${box_yz} 0.00 ${box_yz}
region       ni_c    block        182.00 238.00 0.00 100 0.00 ${box_yz}
region       ni_c    block        182.00 238.00 0.00 100 0.00 100
region       al_d    block        238.00 252.00 0.00 ${box_yz} 0.00 ${box_yz}
region       al_d    block        238.00 252.00 0.00 100 0.00 ${box_yz}
region       al_d    block        238.00 252.00 0.00 100 0.00 100
region       void    block        252.00 262.00 0.00 ${box_yz} 0.00 ${box_yz}
region       void    block        252.00 262.00 0.00 100 0.00 ${box_yz}
region       void    block        252.00 262.00 0.00 100 0.00 100
region       al_w    block        262.00 276.00 0.00 ${box_yz} 0.00 ${box_yz}
region       al_w    block        262.00 276.00 0.00 100 0.00 ${box_yz}
region       al_w    block        262.00 276.00 0.00 100 0.00 100
region       ni_w    block        276.00 332.00 0.00 ${box_yz} 0.00 ${box_yz}
region       ni_w    block        276.00 332.00 0.00 100 0.00 ${box_yz}
region       ni_w    block        276.00 332.00 0.00 100 0.00 100
region       al_x    block        332.00 360.00 0.00 ${box_yz} 0.00 ${box_yz}
region       al_x    block        332.00 360.00 0.00 100 0.00 ${box_yz}
region       al_x    block        332.00 360.00 0.00 100 0.00 100
region       ni_x    block        360.00 416.00 0.00 ${box_yz} 0.00 ${box_yz}
region       ni_x    block        360.00 416.00 0.00 100 0.00 ${box_yz}
region       ni_x    block        360.00 416.00 0.00 100 0.00 100
region       al_y    block        416.00 444.00 0.00 ${box_yz} 0.00 ${box_yz}
region       al_y    block        416.00 444.00 0.00 100 0.00 ${box_yz}
region       al_y    block        416.00 444.00 0.00 100 0.00 100
region       ni_y    block        444.00 500.00 0.00 ${box_yz} 0.00 ${box_yz}
region       ni_y    block        444.00 500.00 0.00 100 0.00 ${box_yz}
region       ni_y    block        444.00 500.00 0.00 100 0.00 100
region       al_z    block        500.00 514.00 0.00 ${box_yz} 0.00 ${box_yz}
region       al_z    block        500.00 514.00 0.00 100 0.00 ${box_yz}
region       al_z    block        500.00 514.00 0.00 100 0.00 100
region    chomp_b   sphere          84.0       ${half_yz}      ${half_yz}  ${void_radius}
region    chomp_b   sphere          84.0       50      ${half_yz}  ${void_radius}
region    chomp_b   sphere          84.0       50      50  ${void_radius}
region    chomp_b   sphere          84.0       50      50  20
region    chomp_c   sphere         168.0       ${half_yz}      ${half_yz}  ${void_radius}
region    chomp_c   sphere         168.0       50      ${half_yz}  ${void_radius}
region    chomp_c   sphere         168.0       50      50  ${void_radius}
region    chomp_c   sphere         168.0       50      50  20
region    chomp_x   sphere         346.0       ${half_yz}      ${half_yz}  ${void_radius}
region    chomp_x   sphere         346.0       50      ${half_yz}  ${void_radius}
region    chomp_x   sphere         346.0       50      50  ${void_radius}
region    chomp_x   sphere         346.0       50      50  20
region    chomp_y   sphere         430.0       ${half_yz}      ${half_yz}  ${void_radius}
region    chomp_y   sphere         430.0       50      ${half_yz}  ${void_radius}
region    chomp_y   sphere         430.0       50      50  ${void_radius}
region    chomp_y   sphere         430.0       50      50  20
region       left    block           0.0 257.00 0.0 200 0.0 200
region      right    block         257.0 514.00 0.0 200 0.0 200

lattice      fcc ${ni_fcc_a} orient x 1 1 1 orient y 1 -1 0 orient z 1 1 -2
lattice      fcc 3.528 orient x 1 1 1 orient y 1 -1 0 orient z 1 1 -2
Lattice spacing in x,y,z = 6.1106752 4.9893454 5.7611999
create_atoms 1 region ni_a
Created 52400 atoms
  using lattice units in orthogonal box = (0 0 0) to (514 100 100)
  create_atoms CPU = 0.021 seconds
create_atoms 1 region ni_b
Created 50582 atoms
  using lattice units in orthogonal box = (0 0 0) to (514 100 100)
  create_atoms CPU = 0.024 seconds
create_atoms 1 region ni_c
Created 50623 atoms
  using lattice units in orthogonal box = (0 0 0) to (514 100 100)
  create_atoms CPU = 0.026 seconds
create_atoms 1 region ni_w
Created 50572 atoms
  using lattice units in orthogonal box = (0 0 0) to (514 100 100)
  create_atoms CPU = 0.027 seconds
create_atoms 1 region ni_x
Created 52486 atoms
  using lattice units in orthogonal box = (0 0 0) to (514 100 100)
  create_atoms CPU = 0.029 seconds
create_atoms 1 region ni_y
Created 52375 atoms
  using lattice units in orthogonal box = (0 0 0) to (514 100 100)
  create_atoms CPU = 0.023 seconds
lattice      fcc ${al_fcc_a} orient x 1 1 1 orient y 1 -1 0 orient z 1 1 -2
lattice      fcc 4.064 orient x 1 1 1 orient y 1 -1 0 orient z 1 1 -2
Lattice spacing in x,y,z = 7.0390545 5.7473639 6.6364842
create_atoms 2 region al_a
Created 8102 atoms
  using lattice units in orthogonal box = (0 0 0) to (514 100 100)
  create_atoms CPU = 0.010 seconds
create_atoms 2 region al_b
Created 16926 atoms
  using lattice units in orthogonal box = (0 0 0) to (514 100 100)
  create_atoms CPU = 0.012 seconds
create_atoms 2 region al_c
Created 16910 atoms
  using lattice units in orthogonal box = (0 0 0) to (514 100 100)
  create_atoms CPU = 0.013 seconds
create_atoms 2 region al_d
Created 8463 atoms
  using lattice units in orthogonal box = (0 0 0) to (514 100 100)
  create_atoms CPU = 0.009 seconds
create_atoms 2 region al_w
Created 8416 atoms
  using lattice units in orthogonal box = (0 0 0) to (514 100 100)
  create_atoms CPU = 0.015 seconds
create_atoms 2 region al_x
Created 16912 atoms
  using lattice units in orthogonal box = (0 0 0) to (514 100 100)
  create_atoms CPU = 0.013 seconds
create_atoms 2 region al_y
Created 16901 atoms
  using lattice units in orthogonal box = (0 0 0) to (514 100 100)
  create_atoms CPU = 0.014 seconds
create_atoms 2 region al_z
Created 8461 atoms
  using lattice units in orthogonal box = (0 0 0) to (514 100 100)
  create_atoms CPU = 0.010 seconds

# pair potential

pair_style eam/alloy
pair_coeff * * Mishin-Ni-Al-2009.eam.alloy Ni Al

# reporting

thermo 100

dump 1 all atom 1000  thermalise.lammpstrj

# dynamics initialisation

delete_atoms region chomp_b compress no
Deleted 2102 atoms, new total = 408027
delete_atoms region chomp_c compress no
Deleted 2106 atoms, new total = 405921
delete_atoms region chomp_x compress no
Deleted 2100 atoms, new total = 403821
delete_atoms region chomp_y compress no
Deleted 2218 atoms, new total = 401603
delete_atoms overlap 2 all all
System init for delete_atoms ...
Neighbor list info ...
  update every 1 steps, delay 10 steps, check yes
  max neighbors/atom: 2000, page size: 100000
  master list distance cutoff = 8.28721
  ghost atom cutoff = 8.28721
  binsize = 4.143605, bins = 125 25 25
  1 neighbor lists, perpetual/occasional/extra = 0 1 0
  (1) command delete_atoms, occasional
      attributes: full, newton off
      pair build: full/bin/atomonly
      stencil: full/bin/3d
      bin: standard
Deleted 11801 atoms, new total = 389802
velocity all create 300 1 mom yes rot no

# simulation


# Thermalisation
fix   1 all npt temp 300 300 $(100*dt) iso 0.0 0.0 $(1000*dt) drag 0.0
fix   1 all npt temp 300 300 0.10000000000000000555 iso 0.0 0.0 $(1000*dt) drag 0.0
fix   1 all npt temp 300 300 0.10000000000000000555 iso 0.0 0.0 1 drag 0.0
run   30000

CITE-CITE-CITE-CITE-CITE-CITE-CITE-CITE-CITE-CITE-CITE-CITE-CITE

Your simulation uses code contributions which should be cited:

- GPU package (short-range, long-range and three-body potentials):

@Article{Brown11,
 author = {W. M. Brown, P. Wang, S. J. Plimpton, A. N. Tharrington},
 title = {Implementing Molecular Dynamics on Hybrid High Performance Computers - Short Range Forces},
 journal = {Comp.~Phys.~Comm.},
 year =    2011,
 volume =  182,
 pages =   {898--911}
}

@Article{Brown12,
 author = {W. M. Brown, A. Kohlmeyer, S. J. Plimpton, A. N. Tharrington},
 title = {Implementing Molecular Dynamics on Hybrid High Performance Computers - Particle-Particle Particle-Mesh},
 journal = {Comp.~Phys.~Comm.},
 year =    2012,
 volume =  183,
 pages =   {449--459}
}

@Article{Brown13,
 author = {W. M. Brown, Y. Masako},
 title = {Implementing Molecular Dynamics on Hybrid High Performance Computers – Three-Body Potentials},
 journal = {Comp.~Phys.~Comm.},
 year =    2013,
 volume =  184,
 pages =   {2785--2793}
}

@Article{Trung15,
 author = {T. D. Nguyen, S. J. Plimpton},
 title = {Accelerating dissipative particle dynamics simulations for soft matter systems},
 journal = {Comput.~Mater.~Sci.},
 year =    2015,
 volume =  100,
 pages =   {173--180}
}

@Article{Trung17,
 author = {T. D. Nguyen},
 title = {GPU-accelerated Tersoff potentials for massively parallel Molecular Dynamics simulations},
 journal = {Comp.~Phys.~Comm.},
 year =    2017,
 volume =  212,
 pages =   {113--122}
}

@Article{Nikolskiy19,
 author = {V. Nikolskiy, V. Stegailov},
 title = {GPU acceleration of four-site water models in LAMMPS},
 journal = {Proceeding of the International Conference on Parallel Computing (ParCo 2019), Prague, Czech Republic},
 year =    2019
}

CITE-CITE-CITE-CITE-CITE-CITE-CITE-CITE-CITE-CITE-CITE-CITE-CITE

Neighbor list info ...
  update every 1 steps, delay 10 steps, check yes
  max neighbors/atom: 2000, page size: 100000
  master list distance cutoff = 8.28721
  ghost atom cutoff = 8.28721
  binsize = 4.143605, bins = 125 25 25
  0 neighbor lists, perpetual/occasional/extra = 0 0 0
Per MPI rank memory allocation (min/avg/max) = 138 | 138 | 138 Mbytes
   Step          Temp          E_pair         E_mol          TotEng         Press          Volume    
         0   300           -1620793.1      0             -1605677.4     -15224.269      5140000      
       100   313.17672     -1621486.9      0             -1605707.3     -4285.6725      5068115.2    
       200   294.89625     -1620814.3      0             -1605955.7      410.67069      5046886.2    
       300   288.66296     -1620907.3      0             -1606362.8      734.53495      5049276.9    
       400   301.02355     -1621750.3      0             -1606583       -808.11949      5049948.4    
       500   299.91049     -1621977.3      0             -1606866.1     -164.11686      5039218.7    
       600   301.66507     -1622239.8      0             -1607040.2     -380.34307      5030678.1    
       700   302.86509     -1622434.8      0             -1607174.7     -394.39442      5023003.3    
       800   296.31443     -1622167.4      0             -1607237.4     -184.42504      5017675.7    
       900   294.60746     -1621864.4      0             -1607020.4      53.540956      5013939      
      1000   301.42515     -1621908.1      0             -1606720.5      399.50189      5015172.1    
      1100   304.66834     -1621943.2      0             -1606592.2     -408.33506      5024552.7    
      1200   300.98281     -1621964.2      0             -1606799        476.68706      5021447      
      1300   303.00257     -1622354.5      0             -1607087.5     -632.70802      5026197.9    
      1400   300.38955     -1622443.7      0             -1607308.4      577.02465      5020075.4    
      1500   299.27197     -1622530.1      0             -1607451        35.057495      5026200.9    
      1600   294.92539     -1622340.5      0             -1607480.5      235.92186      5031924.3    
      1700   297.35019     -1622204.1      0             -1607221.9      230.37886      5036106.9    
      1800   302.35981     -1622191.1      0             -1606956.5     -209.2788       5041929      
      1900   298.77179     -1621961        0             -1606907.2      10.701346      5041101.9    
      2000   301.23764     -1622121.6      0             -1606943.6     -49.729334      5036980.4    
      2100   301.80223     -1622282.9      0             -1607076.4     -28.932045      5035056.6    
      2200   299.38473     -1622354.6      0             -1607269.9     -61.635332      5033014.5    
      2300   298.76071     -1622485.3      0             -1607432        64.563289      5030801.5    
      2400   299.18769     -1622561.4      0             -1607486.6     -168.59366      5031227.4    
      2500   298.40405     -1622419.1      0             -1607383.8     -175.23468      5028953      
      2600   298.79719     -1622240.7      0             -1607185.6      221.70195      5026425.9    
      2700   303.32859     -1622296.9      0             -1607013.4     -251.73296      5026810.4    
      2800   303.39415     -1622391        0             -1607104.3      187.59101      5025422.3    
      2900   299.11138     -1622396.1      0             -1607325.2      72.990217      5028161.6    
      3000   299.31541     -1622506.7      0             -1607425.5      65.127168      5030547.7    
      3100   299.33052     -1622536.4      0             -1607454.4      95.242185      5033123.3    
      3200   299.12384     -1622539.6      0             -1607468        32.215004      5036358.5    
      3300   297.35204     -1622366.3      0             -1607384        30.092207      5039412.4    
      3400   298.44436     -1622194.8      0             -1607157.4      165.79334      5042014.4    
      3500   303.59561     -1622285.7      0             -1606988.8     -157.26604      5046464.1    
      3600   302.8314      -1622361.6      0             -1607103.2      39.840327      5046655.4    
      3700   300.38951     -1622476.4      0             -1607341       -53.57081       5046499.5    
      3800   300.92498     -1622687.6      0             -1607525.3     -127.57843      5044146.3    
      3900   299.53046     -1622773.9      0             -1607681.9     -4.7515105      5040817.5    
      4000   299.00531     -1622838.6      0             -1607773        158.72637      5039358.1    
      4100   297.09778     -1622723.9      0             -1607754.4     -19.125624      5040725      
      4200   298.73283     -1622617.8      0             -1607565.9      8.9496995      5041822.8    
      4300   300.42943     -1622535        0             -1607397.6      118.27056      5042848.9    
      4400   302.79083     -1622598.9      0             -1607342.5     -130.6895       5044814.4    
      4500   302.44908     -1622747.4      0             -1607508.3      186.41987      5045858.7    
      4600   300.76785     -1622870.1      0             -1607715.7      50.13143       5050032.7    
      4700   299.72001     -1622956        0             -1607854.4      108.35886      5053751.4    
      4800   297.69634     -1622893.4      0             -1607893.8      67.257748      5058895      
      4900   298.10268     -1622765.9      0             -1607745.8      12.951615      5062928.7    
      5000   299.13594     -1622624.5      0             -1607552.4     -18.218539      5065519.8    
      5100   300.34884     -1622524        0             -1607390.7     -73.314138      5065883.6    
      5200   302.70034     -1622573.7      0             -1607321.9      48.889928      5064747.8    
      5300   302.17828     -1622677.3      0             -1607451.8     -32.749566      5064844      
      5400   301.10562     -1622815.8      0             -1607644.4      0.20265542     5065162.7    
      5500   299.05832     -1622847.3      0             -1607779       -157.06722      5064624.9    
      5600   299.52676     -1622924.5      0             -1607832.6      50.364602      5061425.8    
      5700   298.29656     -1622852        0             -1607822.1      11.873041      5060019.1    
      5800   298.369       -1622727.3      0             -1607693.8      53.683498      5059641.4    
      5900   300.9934      -1622711        0             -1607545.3      91.027565      5061487.3    
      6000   301.80982     -1622719.2      0             -1607512.3      66.907823      5065108.1    
      6100   300.96724     -1622780.4      0             -1607615.9      55.38291       5069484.1    
      6200   300.86498     -1622933.3      0             -1607774        39.787156      5073195.8    
      6300   299.6648      -1623000.3      0             -1607901.4     -53.233718      5076438.8    
      6400   298.72381     -1623010.9      0             -1607959.5      145.07879      5077333.6    
      6500   297.9612      -1622905.9      0             -1607892.9     -15.515594      5080536.3    
      6600   299.87456     -1622833        0             -1607723.6      139.51005      5083075.1    
      6700   300.95359     -1622779        0             -1607615.3     -41.757764      5087028.6    
      6800   301.87145     -1622809.8      0             -1607599.8     -81.488259      5088695.5    
      6900   301.48963     -1622911.1      0             -1607720.4      58.17237       5087905.2    
      7000   300.27911     -1623019.4      0             -1607889.6     -140.7142       5087388.1    
      7100   299.26023     -1623085.7      0             -1608007.3      45.226547      5084190.5    
      7200   298.47257     -1623067.8      0             -1608029       -40.935358      5082666.9    
      7300   299.09746     -1623025.4      0             -1607955.1      61.559696      5081668.7    
      7400   299.86004     -1622940.4      0             -1607831.7      23.048661      5081813.6    
      7500   300.51643     -1622872.7      0             -1607731        10.06026       5082829.9    
      7600   301.12239     -1622859.2      0             -1607686.9      48.467319      5084367.9    
      7700   301.30726     -1622923.2      0             -1607741.6      47.904846      5086701.9    
      7800   300.17095     -1623005.6      0             -1607881.3      121.92999      5090062.4    
      7900   298.57209     -1623007.5      0             -1607963.7      18.162013      5094756.6    
      8000   298.74222     -1622937.2      0             -1607884.9      26.425847      5098561.5    
      8100   299.13108     -1622812.9      0             -1607741        14.929451      5101264.4    
      8200   299.94193     -1622730.4      0             -1607617.6     -9.1868093      5103292.3    
      8300   300.73019     -1622691.4      0             -1607538.9      20.977077      5104446.7    
      8400   301.08331     -1622737.1      0             -1607566.8      18.211191      5104970.9    
      8500   300.02585     -1622804.8      0             -1607687.7     -6.7887518      5105380.9    
      8600   299.73903     -1622904.8      0             -1607802.2     -30.37458       5105210      
      8700   298.82879     -1622934        0             -1607877.3     -14.384361      5104580.4    
      8800   298.54676     -1622904        0             -1607861.5      5.066286       5103611.1    
      8900   299.08429     -1622822        0             -1607752.4      22.866006      5103358.5    
      9000   300.40737     -1622784        0             -1607647.8      55.820472      5104170.4    
      9100   301.62127     -1622791.9      0             -1607594.5      5.5003626      5106238.8    
      9200   301.29581     -1622839.9      0             -1607658.9      90.001129      5108276.1    
      9300   299.24047     -1622861.2      0             -1607783.7      6.4177483      5111430.6    
      9400   299.24314     -1622935        0             -1607857.4      36.295784      5113429.8    
      9500   299.22876     -1622949.5      0             -1607872.7      59.391949      5115269.6    
      9600   299.23167     -1622891.2      0             -1607814.2     -19.234744      5117714.1    
      9700   299.59844     -1622789.7      0             -1607694.2      9.3410227      5119506.8    
      9800   300.22882     -1622709.1      0             -1607581.8      18.567957      5120562.6    
      9900   300.15705     -1622645.1      0             -1607521.4     -32.386218      5121013.5    
     10000   301.07871     -1622724.8      0             -1607554.7      35.438133      5120216.3    
     10100   300.30713     -1622805.3      0             -1607674.1     -18.254773      5119876.1    
     10200   299.30393     -1622831.2      0             -1607750.5      22.565727      5119337.2    
     10300   298.99154     -1622831.3      0             -1607766.4     -38.173049      5119334.4    
     10400   299.31749     -1622777.8      0             -1607696.5      28.942757      5118633.3    
     10500   299.69312     -1622692.1      0             -1607591.9     -3.0674653      5119088.9    
     10600   300.10574     -1622619.5      0             -1607498.4      65.34133       5119846.6    
     10700   301.14661     -1622635.9      0             -1607462.4     -14.140445      5122494.4    
     10800   300.59406     -1622666.7      0             -1607521.1      96.457828      5125376      
     10900   299.82147     -1622715.8      0             -1607609.1      24.388904      5129245      
     11000   298.95879     -1622722.6      0             -1607659.4      19.540532      5132849.9    
     11100   298.57942     -1622663.4      0             -1607619.3      5.4970348      5135229.7    
     11200   299.81421     -1622630.8      0             -1607524.5      0.55035993     5136412.3    
     11300   300.20055     -1622578.6      0             -1607452.8      2.0470239      5137030.1    
     11400   300.43742     -1622545.4      0             -1607407.6     -21.365211      5137422.8    
     11500   301.2399      -1622610        0             -1607431.8     -13.139419      5137312.4    
     11600   300.73036     -1622679.5      0             -1607527       -41.579261      5136605.3    
     11700   300.04049     -1622731.4      0             -1607613.6     -30.635975      5134437.9    
     11800   299.4376      -1622757.6      0             -1607670.2     -36.836829      5131640.9    
     11900   298.72252     -1622733.8      0             -1607682.5      0.57326261     5128792.7    
     12000   298.59049     -1622656.5      0             -1607611.8      77.68467       5127319.7    
     12100   300.35381     -1622670.2      0             -1607536.7      32.539057      5127846.7    
     12200   300.56381     -1622640.4      0             -1607496.3      58.741179      5129183.8    
     12300   300.83944     -1622652.5      0             -1607494.5      54.881853      5131818.9    
     12400   300.40712     -1622691.2      0             -1607555        13.121584      5134712.6    
     12500   299.8254      -1622716.4      0             -1607609.5      21.321732      5137322.7    
     12600   299.15393     -1622686.8      0             -1607613.7      24.694573      5139250.7    
     12700   298.7339      -1622603.3      0             -1607551.4     -5.9230029      5141046      
     12800   299.25358     -1622558.9      0             -1607480.8      44.658557      5142058.4    
     12900   300.25952     -1622544.7      0             -1607415.9     -76.945134      5143216.3    
     13000   300.3422      -1622516.3      0             -1607383.4      22.011243      5142635.2    
     13100   300.69202     -1622536.3      0             -1607385.8     -56.668521      5141492.2    
     13200   300.80119     -1622604.4      0             -1607448.3     -23.869228      5139113      
     13300   300.75755     -1622667.4      0             -1607513.5     -45.355474      5136840      
     13400   299.77301     -1622656.1      0             -1607551.8     -59.213648      5134608.5    
     13500   299.83827     -1622654.8      0             -1607547.2     -1.0753764      5132058.7    
     13600   300.23575     -1622631.9      0             -1607504.3     -27.863702      5130682.5    
     13700   300.76424     -1622625.8      0             -1607471.6      13.297017      5129449.5    
     13800   300.43181     -1622626        0             -1607488.6      16.080872      5129145.2    
     13900   299.95742     -1622658.2      0             -1607544.6      44.8952        5129470.3    
     14000   300.44239     -1622721.3      0             -1607583.3     -10.825141      5130280      
     14100   300.2555      -1622750.5      0             -1607621.9      31.694024      5131337.3    
     14200   299.3966      -1622721.1      0             -1607635.8      7.492014       5132672.6    
     14300   299.36422     -1622675        0             -1607591.3     -29.167651      5133641.7    
     14400   299.56432     -1622654.2      0             -1607560.4      10.630448      5133593      
     14500   300.03205     -1622665        0             -1607547.7     -28.783399      5133063.9    
     14600   300.97228     -1622729.4      0             -1607564.7     -24.754586      5131835      
     14700   300.39642     -1622757.4      0             -1607621.7     -5.7276294      5130174      
     14800   300.15473     -1622774.9      0             -1607651.4     -22.286025      5128178.4    
     14900   299.86221     -1622797.4      0             -1607688.7      10.586469      5126118.5    
     15000   299.51473     -1622797.7      0             -1607706.5      7.7067487      5124479.7    
     15100   299.29271     -1622753.5      0             -1607673.4     -10.602995      5123628.1    
     15200   300.08038     -1622750.2      0             -1607630.4      5.5351861      5122954.4    
     15300   300.28224     -1622741        0             -1607611.1     -0.35926244     5122329.2    
     15400   300.54769     -1622762.8      0             -1607619.5      22.447566      5122052.4    
     15500   300.80701     -1622828.7      0             -1607672.3      7.7729462      5122573.3    
     15600   300.02963     -1622821.6      0             -1607704.4      19.624194      5123265.5    
     15700   299.63829     -1622808.9      0             -1607711.4     -64.683079      5124314.2    
     15800   300.1804      -1622797.7      0             -1607672.9      1.3987182      5124190      
     15900   300.0312      -1622766.2      0             -1607648.9     -47.104535      5123432.6    
     16000   300.34408     -1622786.4      0             -1607653.4     -24.342306      5121167.6    
     16100   300.80421     -1622847.7      0             -1607691.5     -53.655771      5118543      
     16200   300.86375     -1622887.5      0             -1607728.2      7.1800676      5115592.8    
     16300   300.57899     -1622928.3      0             -1607783.4     -27.923236      5113334.7    
     16400   300.24715     -1622965.7      0             -1607837.5      11.094848      5111437.7    
     16500   299.87111     -1622983.6      0             -1607874.4     -22.586437      5109942.1    
     16600   299.95429     -1623011        0             -1607897.6     -56.132186      5108421.5    
     16700   299.62231     -1622999.2      0             -1607902.5      57.417918      5106773.6    
     16800   300.46734     -1623035.5      0             -1607896.2     -33.927716      5106453.4    
     16900   300.23044     -1623032.6      0             -1607905.3      38.197361      5106369      
     17000   300.56506     -1623106.5      0             -1607962.3      29.100496      5107376.8    
     17100   300.21137     -1623119.2      0             -1607992.8     -41.410182      5108752      
     17200   299.45791     -1623097        0             -1608008.6      25.506445      5109122.4    
     17300   299.26229     -1623053.6      0             -1607975       -62.17528       5109475.9    
     17400   299.85433     -1623032.6      0             -1607924.2      20.992302      5108224.7    
     17500   300.52778     -1623035.2      0             -1607892.9     -78.447008      5107020.4    
     17600   300.44699     -1623012.2      0             -1607874        34.94595       5104483.5    
     17700   300.10629     -1623020.6      0             -1607899.6     -60.238643      5102267.6    
     17800   300.30371     -1623081.3      0             -1607950.3      12.937352      5099080.6    
     17900   300.47973     -1623130.4      0             -1607990.5     -35.786667      5096152.3    
     18000   299.68473     -1623122.4      0             -1608022.6     -59.185644      5093248.8    
     18100   298.91936     -1623074.6      0             -1608013.3      32.334863      5089809.8    
     18200   299.31236     -1623044.4      0             -1607963.3     -55.079325      5087665.1    
     18300   299.92465     -1623049.4      0             -1607937.5      34.466074      5085693.5    
     18400   300.67443     -1623079.1      0             -1607929.4     -0.075715971    5084912.9    
     18500   300.83609     -1623109.6      0             -1607951.8      23.409522      5084673.6    
     18600   300.11872     -1623124.4      0             -1608002.7     -2.0901314      5085602.9    
     18700   299.57619     -1623120.8      0             -1608026.4      29.032677      5086457.6    
     18800   299.23405     -1623120.8      0             -1608043.7     -2.7881908      5087373.7    
     18900   299.77819     -1623126.6      0             -1608022       -22.007418      5087685.7    
     19000   300.21597     -1623099.5      0             -1607972.9     -46.815722      5087098.2    
     19100   300.05124     -1623077.3      0             -1607959       -15.196109      5085302.7    
     19200   300.07621     -1623079.5      0             -1607960       -52.933627      5083090.2    
     19300   299.87497     -1623110.4      0             -1608001       -23.64255       5080459.9    
     19400   299.868       -1623147.3      0             -1608038.2     -37.965357      5077626.4    
     19500   300.2791      -1623186        0             -1608056.2     -42.429741      5074766.6    
     19600   299.76923     -1623171.7      0             -1608067.6     -19.322589      5071847.4    
     19700   299.67431     -1623134.7      0             -1608035.4     -39.511184      5069131.3    
     19800   299.33959     -1623077.8      0             -1607995.3      17.755792      5066393.6    
     19900   299.46535     -1623086.5      0             -1607997.7     -1.7846151      5064374.3    
     20000   300.00584     -1623108.1      0             -1607992       -17.189811      5063178.4    
     20100   300.24979     -1623108.5      0             -1607980.1     -18.391812      5062572      
     20200   300.44227     -1623096        0             -1607958       -16.27303       5062758.6    
     20300   300.53899     -1623075.7      0             -1607932.8      17.309965      5062745.4    
     20400   299.759       -1623008.7      0             -1607905.1     -32.386682      5062918.5    
     20500   299.91608     -1622975.3      0             -1607863.8     -8.5950073      5062835.6    
     20600   300.30258     -1622972.2      0             -1607841.3     -12.189094      5062177.3    
     20700   299.8566      -1622947.7      0             -1607839.2     -60.283393      5061454.4    
     20800   300.41682     -1622979.3      0             -1607842.6     -6.6521153      5059548.7    
     20900   300.2885      -1623010.6      0             -1607880.4     -59.432559      5057950.5    
     21000   300.15955     -1623045.5      0             -1607921.8      11.61679       5055811.4    
     21100   299.99123     -1623031        0             -1607915.7     -22.084015      5054168.9    
     21200   299.63879     -1622981.1      0             -1607883.5     -11.139405      5052371.5    
     21300   299.56907     -1622947.3      0             -1607853.2     -11.300561      5050691.4    
     21400   299.77615     -1622935        0             -1607830.6     -7.6749911      5048949.1    
     21500   300.26812     -1622934.3      0             -1607805       -7.9222132      5047578.7    
     21600   300.6451      -1622950.5      0             -1607802.3      8.3989328      5046334.3    
     21700   299.88748     -1622962        0             -1607851.9     -22.994719      5045732.2    
     21800   299.80384     -1622984.2      0             -1607878.4      51.658544      5045448.6    
     21900   300.07869     -1622990.9      0             -1607871.2     -39.515428      5046136      
     22000   299.82089     -1622943.8      0             -1607837.1     -29.603675      5046156.5    
     22100   300.14837     -1622915.4      0             -1607792.2     -4.6784395      5045831.7    
     22200   299.81844     -1622868        0             -1607761.4     -4.2758619      5044950.1    
     22300   299.98618     -1622841.3      0             -1607726.2     -65.683995      5043822.4    
     22400   300.02714     -1622825.4      0             -1607708.3      46.160922      5041956.7    
     22500   300.24775     -1622835.3      0             -1607707.1     -40.318989      5040769.9    
     22600   299.84542     -1622854.1      0             -1607746.2      19.335343      5038825.8    
     22700   299.2832      -1622861.6      0             -1607782       -19.05808       5037562.2    
     22800   299.36199     -1622837.8      0             -1607754.2      1.2667119      5036082.8    
     22900   299.58307     -1622802.5      0             -1607707.8     -1.6610109      5034906      
     23000   299.52007     -1622764.6      0             -1607673.1      29.959646      5034073      
     23100   299.70795     -1622732.1      0             -1607631.1      23.743544      5033960.7    
     23200   300.23827     -1622727.7      0             -1607600       -1.665903       5034505.4    
     23300   299.43772     -1622679.4      0             -1607592        15.238369      5035296.7    
     23400   300.02444     -1622696.4      0             -1607579.4     -10.371671      5036126      
     23500   299.9382      -1622677.1      0             -1607564.5      28.712906      5036688.8    
     23600   300.45644     -1622677        0             -1607538.2     -42.366036      5037568.4    
     23700   300.23183     -1622640.5      0             -1607513.1      18.585987      5037455      
     23800   300.10826     -1622616.7      0             -1607495.5     -53.578822      5037477.4    
     23900   300.88891     -1622631.9      0             -1607471.4      18.81958       5036571.6    
     24000   300.85962     -1622623.8      0             -1607464.8     -54.32579       5035911.3    
     24100   299.9411      -1622626.1      0             -1607513.4      10.789279      5034181.5    
     24200   300.1242      -1622668.6      0             -1607546.6      20.977723      5032630.4    
     24300   300.1505      -1622686.3      0             -1607563       -32.844749      5031280      
     24400   300.08273     -1622679        0             -1607559.1     -6.1429518      5029690.4    
     24500   299.92082     -1622629.7      0             -1607517.9     -11.566227      5028729      
     24600   300.25952     -1622617.4      0             -1607488.6      46.328552      5027659.5    
     24700   300.81172     -1622657.9      0             -1607501.3     -45.240422      5027623      
     24800   299.89976     -1622639.9      0             -1607529.2      79.853442      5027270.8    
     24900   300.0075      -1622654.2      0             -1607538.1     -3.6376735      5028508.2    
     25000   299.38043     -1622629        0             -1607544.5      21.313897      5029894.7    
     25100   299.90325     -1622646.3      0             -1607535.5      48.905109      5031254.9    
     25200   300.26156     -1622619.5      0             -1607490.6     -76.263617      5033365.6    
     25300   300.01367     -1622582.5      0             -1607466.1      87.686389      5034018.8    
     25400   300.19074     -1622583.8      0             -1607458.5     -70.812176      5035402.2    
     25500   300.06363     -1622585.2      0             -1607466.3      68.067008      5035361.5    
     25600   299.86369     -1622604.9      0             -1607496.1     -72.157981      5035610.4    
     25700   300.0389      -1622636.2      0             -1607518.5     -5.2165746      5034734.5    
     25800   300.02082     -1622636.6      0             -1607519.8      13.212093      5033761.4    
     25900   299.70102     -1622588.6      0             -1607487.9     -27.870841      5032759.1    
     26000   300.20156     -1622583.8      0             -1607457.9      43.920083      5031471.6    
     26100   300.52141     -1622632.7      0             -1607490.7     -10.487407      5030500.4    
     26200   300.24914     -1622650.2      0             -1607522       -14.463742      5029441.7    
     26300   300.26373     -1622656.3      0             -1607527.3      17.24737       5029020.6    
     26400   299.34594     -1622626.3      0             -1607543.6      62.092916      5028760.5    
     26500   299.58321     -1622673.6      0             -1607578.9     -34.990603      5029413.5    
     26600   300.14412     -1622725        0             -1607602        66.336571      5029875.9    
     26700   299.61791     -1622707        0             -1607610.5     -19.916822      5031419.1    
     26800   299.99807     -1622725.4      0             -1607609.7      81.431497      5032650      
     26900   299.71371     -1622753.7      0             -1607652.4     -13.224617      5034469.6    
     27000   299.01401     -1622742        0             -1607675.9      26.884889      5035922.9    
     27100   299.73584     -1622752.8      0             -1607650.4      38.178947      5037038.8    
     27200   299.64042     -1622714.1      0             -1607616.4     -56.65895       5038146.1    
     27300   300.23583     -1622736.6      0             -1607609        25.798367      5038228.2    
     27400   300.9083      -1622804        0             -1607642.5     -46.964059      5038587.7    
     27500   300.2606      -1622804.6      0             -1607675.7      48.048662      5038145.1    
     27600   300.64098     -1622844.9      0             -1607696.9     -33.536951      5038198.5    
     27700   299.68602     -1622832.5      0             -1607732.6      5.0190621      5038022.5    
     27800   299.79582     -1622853.4      0             -1607748        10.569256      5037974.5    
     27900   299.71053     -1622838.6      0             -1607737.5     -18.128125      5038539.4    
     28000   300.57971     -1622830.2      0             -1607685.3      111.81443      5038618.6    
     28100   301.17742     -1622851.7      0             -1607676.7     -132.42921      5040132.3    
     28200   300.53085     -1622856.6      0             -1607714.1      94.919688      5040444.5    
     28300   299.90435     -1622854.4      0             -1607743.5     -23.241077      5042184.6    
     28400   300.52246     -1622912.3      0             -1607770.2     -17.524757      5043616.5    
     28500   300.09144     -1622906        0             -1607785.7      53.390822      5044872.8    
     28600   299.68056     -1622876.9      0             -1607777.3     -80.39696       5047006.4    
     28700   300.38627     -1622862.2      0             -1607727        122.87431      5047739.7    
     28800   300.86957     -1622878.6      0             -1607719       -139.56077      5050230.2    
     28900   300.82607     -1622909.1      0             -1607751.7      107.40789      5050206.5    
     29000   300.05633     -1622904.6      0             -1607786.1     -79.134665      5051592.3    
     29100   300.37837     -1622955.4      0             -1607820.6      26.977388      5051695.8    
     29200   300.57833     -1623004        0             -1607859.2      29.048734      5052039      
     29300   300.06521     -1623003.4      0             -1607884.4     -65.740012      5053109.7    
     29400   299.54133     -1623004.6      0             -1607912        112.65992      5053320      
     29500   299.22936     -1623007        0             -1607930.1     -47.03129       5055092.4    
     29600   299.72237     -1623033.2      0             -1607931.5      70.336438      5056154.1    
     29700   299.94663     -1623054.4      0             -1607941.3     -7.9935254      5058146.4    
     29800   300.1196      -1623089.8      0             -1607968       -2.7499764      5060035.2    
     29900   300.12189     -1623106.9      0             -1607985.1      48.511362      5061941.3    
     30000   300.03764     -1623107.5      0             -1607989.9     -33.808517      5064171.2    
Loop time of 1891.08 on 1 procs for 30000 steps with 389802 atoms

Performance: 1.371 ns/day, 17.510 hours/ns, 15.864 timesteps/s
99.9% CPU use with 1 MPI tasks x 1 OpenMP threads

MPI task timing breakdown:
Section |  min time  |  avg time  |  max time  |%varavg| %total
---------------------------------------------------------------
Pair    | 1163.6     | 1163.6     | 1163.6     |   0.0 | 61.53
Neigh   | 0.77655    | 0.77655    | 0.77655    |   0.0 |  0.04
Comm    | 59.982     | 59.982     | 59.982     |   0.0 |  3.17
Output  | 14.748     | 14.748     | 14.748     |   0.0 |  0.78
Modify  | 561.38     | 561.38     | 561.38     |   0.0 | 29.69
Other   |            | 90.59      |            |       |  4.79

Nlocal:         389802 ave      389802 max      389802 min
Histogram: 1 0 0 0 0 0 0 0 0 0
Nghost:         157882 ave      157882 max      157882 min
Histogram: 1 0 0 0 0 0 0 0 0 0
Neighs:              0 ave           0 max           0 min
Histogram: 1 0 0 0 0 0 0 0 0 0

Total # of neighbors = -1
Ave neighs/atom = -2.565405e-06
Neighbor list builds = 337
Dangerous builds = 0
write_data void-nial09-thermalised.data
System init for write_data ...
Total wall time: 0:31:37
