LAMMPS (24 Mar 2022)
OMP_NUM_THREADS environment is not set. Defaulting to 1 thread. (src/comm.cpp:98)
  using 1 OpenMP thread(s) per MPI task
package gpu 0

# System init

units      metal
dimension  3
boundary   p p p
atom_style atomic
timestep   0.00025


#

variable a equal 3.528


lattice         fcc $a
lattice         fcc 3.528
Lattice spacing in x,y,z = 3.528 3.528 3.528
region          box prism 0 10.0 0 10.0 0 10.0 0.0 0.0 0.0
create_box      1 box
Created triclinic box = (0 0 0) to (35.28 35.28 35.28) with tilt (0 0 0)
  1 by 2 by 3 MPI processor grid
create_atoms    1 box
Created 4000 atoms
  using lattice units in triclinic box = (0 0 0) to (35.28 35.28 35.28) with tilt (0 0 0)
  create_atoms CPU = 0.001 seconds



# pair potential
pair_style eam/alloy
pair_coeff * *  Mishin-Ni-Al-2009.eam.alloy Ni


thermo 1000
thermo_style custom step temp pe etotal press vol


# reporting

dump   1 all atom 1000 generic.lammpstrj
dump   2 all custom 1000 unwrapped.lammpstrj id type xu yu zu

# Single point
min_style cg
minimize 1e-8 1e-8 10000 100000

CITE-CITE-CITE-CITE-CITE-CITE-CITE-CITE-CITE-CITE-CITE-CITE-CITE

Your simulation uses code contributions which should be cited:

- GPU package (short-range, long-range and three-body potentials):

@Article{Brown11,
 author = {W. M. Brown, P. Wang, S. J. Plimpton, A. N. Tharrington},
 title = {Implementing Molecular Dynamics on Hybrid High Performance Computers - Short Range Forces},
 journal = {Comp.~Phys.~Comm.},
 year =    2011,
 volume =  182,
 pages =   {898--911}
}

@Article{Brown12,
 author = {W. M. Brown, A. Kohlmeyer, S. J. Plimpton, A. N. Tharrington},
 title = {Implementing Molecular Dynamics on Hybrid High Performance Computers - Particle-Particle Particle-Mesh},
 journal = {Comp.~Phys.~Comm.},
 year =    2012,
 volume =  183,
 pages =   {449--459}
}

@Article{Brown13,
 author = {W. M. Brown, Y. Masako},
 title = {Implementing Molecular Dynamics on Hybrid High Performance Computers – Three-Body Potentials},
 journal = {Comp.~Phys.~Comm.},
 year =    2013,
 volume =  184,
 pages =   {2785--2793}
}

@Article{Trung15,
 author = {T. D. Nguyen, S. J. Plimpton},
 title = {Accelerating dissipative particle dynamics simulations for soft matter systems},
 journal = {Comput.~Mater.~Sci.},
 year =    2015,
 volume =  100,
 pages =   {173--180}
}

@Article{Trung17,
 author = {T. D. Nguyen},
 title = {GPU-accelerated Tersoff potentials for massively parallel Molecular Dynamics simulations},
 journal = {Comp.~Phys.~Comm.},
 year =    2017,
 volume =  212,
 pages =   {113--122}
}

@Article{Nikolskiy19,
 author = {V. Nikolskiy, V. Stegailov},
 title = {GPU acceleration of four-site water models in LAMMPS},
 journal = {Proceeding of the International Conference on Parallel Computing (ParCo 2019), Prague, Czech Republic},
 year =    2019
}

CITE-CITE-CITE-CITE-CITE-CITE-CITE-CITE-CITE-CITE-CITE-CITE-CITE

WARNING: Using 'neigh_modify every 1 delay 0 check yes' setting during minimization (src/min.cpp:187)
Neighbor list info ...
  update every 1 steps, delay 0 steps, check yes
  max neighbors/atom: 2000, page size: 100000
  master list distance cutoff = 8.28721
  ghost atom cutoff = 8.28721
  binsize = 4.143605, bins = 9 9 9
  0 neighbor lists, perpetual/occasional/extra = 0 0 0
Per MPI rank memory allocation (min/avg/max) = 5.997 | 5.999 | 6.002 Mbytes
   Step          Temp          PotEng         TotEng         Press          Volume    
         0   0             -17798.862     -17798.862     -12140.904      43912.254    
         2   0             -17798.863     -17798.863     -12140.865      43912.254    
Loop time of 0.0105298 on 6 procs for 2 steps with 4000 atoms

95.1% CPU use with 6 MPI tasks x 1 OpenMP threads

Minimization stats:
  Stopping criterion = energy tolerance
  Energy initial, next-to-last, final = 
     -17798.8623357894  -17798.8625786561  -17798.8625883359
  Force two-norm initial, final = 0.00060495595 0.0013086439
  Force max component initial, final = 1.2241304e-05 2.4190417e-05
  Final line search alpha, max atom move = 1 2.4190417e-05
  Iterations, force evaluations = 2 4

MPI task timing breakdown:
Section |  min time  |  avg time  |  max time  |%varavg| %total
---------------------------------------------------------------
Pair    | 0.0056291  | 0.0064224  | 0.0071258  |   0.8 | 60.99
Neigh   | 0          | 0          | 0          |   0.0 |  0.00
Comm    | 0.00043737 | 0.00047007 | 0.00050458 |   0.0 |  4.46
Output  | 0          | 0          | 0          |   0.0 |  0.00
Modify  | 3.16e-07   | 4.125e-07  | 6.16e-07   |   0.0 |  0.00
Other   |            | 0.003637   |            |       | 34.54

Nlocal:        666.667 ave         700 max         600 min
Histogram: 2 0 0 0 0 0 0 0 0 4
Nghost:        3833.33 ave        3984 max        3708 min
Histogram: 2 0 0 2 0 0 0 0 0 2
Neighs:              0 ave           0 max           0 min
Histogram: 6 0 0 0 0 0 0 0 0 0

Total # of neighbors = -6
Ave neighs/atom = -0.0015
Neighbor list builds = 0
Dangerous builds = 0

# Thermalisation

variable v equal vol

velocity all create 500 1 mom yes rot no
fix 1 all npt temp 500 3500 $(100*dt) iso 0.0 0.0 $(1000*dt)
fix 1 all npt temp 500 3500 0.025000000000000001388 iso 0.0 0.0 $(1000*dt)
fix 1 all npt temp 500 3500 0.025000000000000001388 iso 0.0 0.0 0.25
fix     2     all ave/time 1 1 1 c_thermo_temp file temp.dat
fix     3     all ave/time 1 1 1 v_v file vol.dat


run  1500000
Per MPI rank memory allocation (min/avg/max) = 4.889 | 4.892 | 4.896 Mbytes
   Step          Temp          PotEng         TotEng         Press          Volume    
         2   500           -17798.863     -17540.407     -5854.2129      43912.254    
      1000   464.50101     -17500.739     -17260.633      3837.1625      44085.444    
      2000   503.22815     -17526.303     -17266.179     -1059.9143      44185.2      
      3000   515.7993      -17517.946     -17251.323     -43.564441      44178.777    
      4000   520.96594     -17530.008     -17260.715     -616.8654       44179.51     
      5000   501.87615     -17525.477     -17266.051      1578.1781      44119.699    
      6000   498.42723     -17521.673     -17264.03      -2529.9993      44231.544    
      7000   521.76575     -17527.116     -17257.41       1843.7957      44112.787    
      8000   525.09335     -17526.134     -17254.707     -1242.4259      44193.348    
      9000   519.82771     -17521.026     -17252.321      1406.8924      44137.36     
     10000   506.29306     -17521.559     -17259.85      -2191.5488      44224.452    
     11000   518.8233      -17518.862     -17250.676      1974.97        44121.726    
     12000   534.51549     -17520.804     -17244.507     -2318.0113      44241.169    
     13000   530.58436     -17510.543     -17236.278      2706.8822      44119.004    
     14000   532.57703     -17514.458     -17239.162     -993.41748      44210.113    
     15000   535.05034     -17511.47      -17234.896      573.38676      44172.073    
     16000   526.94093     -17513.829     -17241.448     -827.05704      44206.577    
     17000   533.00276     -17520.006     -17244.491      1778.4682      44129.082    
     18000   536.19665     -17509.327     -17232.161     -2929.8461      44267.272    
     19000   548.13159     -17510.003     -17226.667      1580.8095      44155.593    
     20000   534.23215     -17507.641     -17231.49      -297.40175      44194.191    
     21000   558.83582     -17508.32      -17219.452      563.02698      44186.883    
     22000   533.9291      -17513.968     -17237.974     -383.36659      44193.454    
     23000   540.88219     -17505.773     -17226.184      340.33621      44194.249    
     24000   551.66347     -17503.426     -17218.265     -753.44917      44229.633    
     25000   547.13679     -17501.668     -17218.847      2154.2408      44153.318    
     26000   561.86227     -17506.417     -17215.984     -2751.8658      44280.595    
     27000   554.42983     -17503.2       -17216.609      2886.4875      44132.378    
     28000   561.63789     -17504.391     -17214.074     -1153.0705      44238.584    
     29000   573.07895     -17495.192     -17198.961      298.75994      44216.875    
     30000   551.34213     -17488.921     -17203.926     -1756.3356      44272.367    
     31000   558.99933     -17484.558     -17195.605      2495.5362      44170.505    
     32000   561.21221     -17488.991     -17198.894     -2359.3781      44293.279    
     33000   561.0445      -17491.371     -17201.361      1102.0525      44199.393    
     34000   566.70568     -17500.715     -17207.779     -321.36572      44223.905    
     35000   576.28846     -17492.443     -17194.553     -152.2337       44235.022    
     36000   591.7067      -17496.925     -17191.065      1134.228       44197.771    
     37000   572.29115     -17492.494     -17196.67      -2470.2929      44297.29     
     38000   575.79487     -17488.908     -17191.273      943.71012      44212.215    
     39000   577.30734     -17483.876     -17185.459      244.9659       44239.785    
     40000   581.96807     -17484.707     -17183.881      115.10133      44243.686    
     41000   581.04162     -17479.034     -17178.687     -534.04336      44266.784    
     42000   587.66888     -17482.264     -17178.491      944.33559      44230.993    
     43000   568.56992     -17485.448     -17191.548     -1597.8826      44281.449    
     44000   587.93815     -17485.818     -17181.906      2135.0832      44188.07     
     45000   593.07589     -17473.986     -17167.418     -1232.3604      44301.215    
     46000   596.95381     -17478.361     -17169.789      355.28508      44252.269    
     47000   586.28449     -17477.86      -17174.803     -245.09269      44265.966    
     48000   600.05406     -17479.145     -17168.971     -34.387652      44262.506    
     49000   611.35144     -17477.746     -17161.732      1104.7335      44236.13     
     50000   595.78289     -17474.151     -17166.184     -1782.7889      44313.188    
     51000   602.51381     -17472.613     -17161.166      4359.093       44155.877    
     52000   605.74344     -17469.849     -17156.733     -3365.3669      44370.625    
     53000   611.46243     -17460.607     -17144.536      1938.6523      44236.475    
     54000   607.80061     -17466.166     -17151.987     -1818.336       44337.043    
     55000   608.66742     -17470.885     -17156.258      1370.6863      44241.354    
     56000   615.6246      -17472.442     -17154.218     -1999.4479      44331.303    
     57000   617.61871     -17466.743     -17147.488      2599.8692      44219.786    
     58000   615.51204     -17459.609     -17141.443     -1683.7962      44342.948    
     59000   614.72515     -17452.001     -17134.242      99.332902      44309.374    
     60000   611.38057     -17463.04      -17147.011     -338.28586      44300.843    
     61000   624.97867     -17459.866     -17136.807      811.93805      44277.007    
     62000   625.05792     -17460.608     -17137.509     -719.28104      44318.93     
     63000   622.78697     -17447.633     -17125.708     -350.51354      44330.471    
     64000   627.80134     -17450.96      -17126.442      954.558        44289.247    
     65000   622.83581     -17453.637     -17131.687     -801.10261      44333.194    
     66000   635.42129     -17458.231     -17129.774      400.81947      44300.329    
     67000   629.47336     -17447.083     -17121.701     -238.33808      44327.248    
     68000   637.08287     -17456.998     -17127.683      898.41793      44287.509    
     69000   639.2482      -17450.766     -17120.332     -3270.6901      44413.836    
     70000   636.88216     -17455.544     -17126.332      2688.7969      44242.041    
     71000   644.95789     -17450.748     -17117.362     -1512.108       44363.464    
     72000   660.95195     -17446.432     -17104.779      1519.8821      44296.41     
     73000   648.29274     -17452.245     -17117.135     -4202.5967      44435.647    
     74000   646.06194     -17444.995     -17111.039      3662.9676      44235.899    
     75000   638.0953      -17444.889     -17115.05      -2194.1543      44387.229    
     76000   668.5474      -17439.975     -17094.395      1698.8419      44303.586    
     77000   651.29372     -17442.615     -17105.954     -1872.304       44384.019    
     78000   649.54977     -17436.475     -17100.715      4779.7482      44214.217    
     79000   655.84809     -17429.769     -17090.754     -3463.7403      44447.692    
     80000   662.9211      -17440.576     -17097.905      446.02868      44335.112    
     81000   660.77033     -17438.015     -17096.455      280.34889      44336.398    
     82000   649.7098      -17440.042     -17104.199     -627.53013      44352.138    
     83000   666.15831     -17437.886     -17093.541      1265.526       44313.28     
     84000   675.37888     -17437.152     -17088.041     -1451.4338      44394.488    
     85000   666.65452     -17440.972     -17096.371      1838.4792      44294.847    
     86000   683.03317     -17424.876     -17071.808     -982.02447      44403.972    
     87000   665.52569     -17426.055     -17082.037      94.798501      44369.559    
     88000   675.20343     -17424.124     -17075.104     -863.79029      44402.791    
     89000   685.02013     -17433.977     -17079.882      1686.6157      44320.712    
     90000   677.85925     -17434.053     -17083.66      -712.41475      44380.912    
     91000   683.90504     -17425.881     -17072.363      665.48976      44362.117    
     92000   683.71161     -17439.539     -17086.121      173.7314       44349.457    
     93000   686.582       -17421.579     -17066.677     -382.47996      44391.252    
     94000   699.4665      -17417.226     -17055.664      903.43813      44375.817    
     95000   677.6085      -17422.462     -17072.199     -542.92919      44396.96     
     96000   678.551       -17422.11      -17071.359      18.182546      44384.639    
     97000   696.03425     -17413.383     -17053.595     -1764.28        44450.418    
     98000   700.08494     -17416.168     -17054.286      2599.0316      44332.215    
     99000   702.34875     -17418.273     -17055.221     -2242.8888      44461.046    
    100000   696.06474     -17407.303     -17047.499      1319.2339      44377.46     
    101000   697.53069     -17420.399     -17059.837     -2000.951       44445.022    
    102000   701.35494     -17423.066     -17060.528      2855.6161      44308.581    
    103000   713.70343     -17409.258     -17040.336     -3174.621       44496.579    
    104000   695.96365     -17415.793     -17056.041      2052.38        44346.949    
    105000   703.32888     -17421.285     -17057.726     -859.12651      44416.77     
    106000   711.57567     -17410.953     -17043.132      949.85333      44384.531    
    107000   712.93385     -17414.848     -17046.325     -2444.3693      44465.376    
    108000   718.54047     -17402.746     -17031.324      2775.3509      44350.829    
    109000   710.40564     -17405.875     -17038.659     -3024.7356      44501.607    
    110000   702.74055     -17405.63      -17042.376      1611.7917      44371.942    
    111000   731.49645     -17405.113     -17026.994     -444.27478      44439.333    
    112000   723.02693     -17400.778     -17027.037     -456.19818      44451.499    
    113000   725.86889     -17404.514     -17029.305      419.4326       44414.662    
    114000   735.51113     -17397.279     -17017.085     -495.43767      44456.441    
    115000   736.22811     -17394.355     -17013.791     -30.086249      44444.546    
    116000   716.75667     -17399.612     -17029.112      95.491731      44425.457    
    117000   735.51531     -17405.771     -17025.575     -751.32633      44446.158    
    118000   742.57074     -17395.838     -17011.994      377.7717       44438.464    
    119000   722.36839     -17392.045     -17018.645     -13.0755        44443.099    
    120000   746.62109     -17388.006     -17002.069     -109.72347      44458.064    
    121000   738.94965     -17394.99      -17013.019      76.087476      44440.297    
    122000   746.70762     -17386.564     -17000.582     -1080.8246      44494.124    
    123000   757.61274     -17388.92      -16997.302      1677.7877      44416.157    
    124000   752.30366     -17383.837     -16994.963     -560.59675      44481.697    
    125000   750.97755     -17387.23      -16999.041      840.28518      44442.796    
    126000   740.5478      -17387.662     -17004.865     -2952.4964      44539.192    
    127000   744.08196     -17376.367     -16991.743      3711.9261      44375.537    
    128000   761.04171     -17385.329     -16991.937     -2720.3398      44546.493    
    129000   762.60887     -17380.59      -16986.389      1290.6529      44439.104    
    130000   775.91235     -17382.032     -16980.954     -244.10021      44483.475    
    131000   745.4104      -17374.69      -16989.379      763.22656      44462.055    
    132000   747.17678     -17374.094     -16987.87      -2454.0502      44554.566    
    133000   754.60705     -17374.432     -16984.367      3628.7537      44387.894    
    134000   790.32434     -17376.914     -16968.387     -1363.8553      44528.524    
    135000   773.38984     -17368.548     -16968.774      1544.7226      44461.628    
    136000   783.4379      -17378.248     -16973.281     -766.4159       44503.45     
    137000   769.65207     -17369.43      -16971.588      952.47506      44478.17     
    138000   778.84148     -17370.982     -16968.39      -2356.6077      44563.122    
    139000   794.61981     -17362.306     -16951.558      3851.9579      44417.51     
    140000   778.57624     -17368.012     -16965.557     -1841.6442      44546.867    
    141000   805.94909     -17368.442     -16951.838      134.0233       44504.984    
    142000   792.1755      -17378.249     -16968.764      1.3348199      44492.027    
    143000   784.40643     -17367.357     -16961.889      10.629937      44508.802    
    144000   777.53425     -17359.1       -16957.184     -4776.0012      44654.036    
    145000   800.68916     -17364.97      -16951.084      2146.7798      44457.85     
    146000   795.17777     -17368.104     -16957.068     -1002.3309      44536.876    
    147000   779.82397     -17350.391     -16947.291      234.6755       44523.031    
    148000   787.28902     -17362.09      -16955.132     -777.19256      44530.177    
    149000   776.53025     -17365.179     -16963.781      1331.2798      44475.075    
    150000   792.27922     -17357.779     -16948.241     -1679.6801      44571.253    
    151000   800.03306     -17357.229     -16943.683      89.864995      44527.937    
    152000   804.13291     -17362.167     -16946.501      1015.5317      44491.263    
    153000   814.30353     -17361.642     -16940.72      -1744.8197      44572.227    
    154000   810.41514     -17343.741     -16924.828      3763.5451      44449.499    
    155000   816.70502     -17352.374     -16930.21      -4284.078       44667.247    
    156000   816.30592     -17355.709     -16933.751      580.37099      44528.46     
    157000   803.49453     -17349.899     -16934.563      169.67408      44543.223    
    158000   832.63108     -17345.538     -16915.142     -414.00128      44580.023    
    159000   809.53435     -17345.759     -16927.302      2944.9507      44469.827    
    160000   822.29482     -17346.681     -16921.628     -3247.062       44645.353    
    161000   810.9104      -17343.677     -16924.508      2178.3066      44488.207    
    162000   827.98523     -17345.376     -16917.381     -554.29166      44578.159    
    163000   817.20385     -17340.142     -16917.72       1150.9233      44533.864    
    164000   813.58982     -17329.276     -16908.722     -1757.3372      44636.759    
    165000   830.35249     -17328.354     -16899.136      344.78687      44576.709    
    166000   850.96209     -17336.734     -16896.862     -348.16651      44588.588    
    167000   842.83236     -17339.613     -16903.943      3037.1639      44490.484    
    168000   819.80638     -17337.35      -16913.583     -3021.062       44659.988    
    169000   837.49941     -17339.715     -16906.802      3373.1815      44479.669    
    170000   839.573       -17331.204     -16897.22      -1377.4793      44629.645    
    171000   827.10026     -17324.719     -16897.181     -168.75374      44602.391    
    172000   850.69953     -17331.496     -16891.76      -578.17269      44609.873    
    173000   866.65725     -17334.042     -16886.057      5140.3228      44455.316    
    174000   850.91703     -17336.318     -16896.469     -747.93811      44614.42     
    175000   852.98405     -17325.504     -16884.587      1253.975       44570.296    
    176000   847.96388     -17323.548     -16885.226     -3879.4112      44724.082    
    177000   843.47139     -17327.865     -16891.865      3971.047       44496.566    
    178000   846.37933     -17313.138     -16875.635     -1921.6517      44684.891    
    179000   861.58748     -17315.197     -16869.832     -194.38005      44636.769    
    180000   854.95098     -17313.658     -16871.724     -875.14802      44647.44     
    181000   862.66798     -17314.953     -16869.03       2271.2402      44559.569    
    182000   872.7156      -17303.493     -16852.377     -1540.6921      44697.497    
    183000   855.91931     -17311.41      -16868.976      3078.4305      44552.616    
    184000   894.81775     -17317.927     -16855.386     -3372.4979      44726.738    
    185000   865.04084     -17311.77      -16864.621      3892.4631      44525.101    
    186000   877.25879     -17316.743     -16863.278     -2094.818       44686.968    
    187000   881.17434     -17319.75      -16864.261      1723.2141      44573.338    
    188000   867.88102     -17320.985     -16872.368     -1672.432       44668.347    
    189000   862.27055     -17296.766     -16851.049     -1772.5079      44714.183    
    190000   891.48289     -17306.459     -16845.642      1441.3584      44610.503    
    191000   887.60467     -17308.125     -16849.312     -725.60203      44668.636    
    192000   893.10087     -17306.587     -16844.933      1366.3803      44621.825    
    193000   886.10896     -17298.402     -16840.363     -377.26554      44676.957    
    194000   900.87244     -17295.566     -16829.895     -1312.2577      44707.901    
    195000   899.27229     -17302.479     -16837.635      2398.6714      44592.935    
    196000   873.51341     -17298.144     -16846.615     -1253.4032      44702.978    
    197000   873.23095     -17309.118     -16857.735      3000.9155      44558.456    
    198000   892.26786     -17296.994     -16835.771     -2411.9728      44738.137    
    199000   900.81873     -17294.508     -16828.864      5917.4727      44507.059    
    200000   911.36126     -17302.283     -16831.19       121.44518      44662.624    
    201000   887.10096     -17293.484     -16834.931     -2322.8732      44743.566    
    202000   885.61158     -17290.354     -16832.571      2769.9102      44610.233    
    203000   900.73985     -17293.211     -16827.608     -1456.0352      44727.275    
    204000   894.99179     -17302.918     -16840.286      147.3349       44652.194    
    205000   916.74329     -17305.987     -16832.112      916.53427      44635.065    
    206000   908.29916     -17286.522     -16817.012      372.66301      44684.184    
    207000   908.06618     -17299.811     -16830.421     -3597.8251      44787.693    
    208000   930.27001     -17295.726     -16814.858      2631.8683      44620.078    
    209000   925.59528     -17287.258     -16808.807     -1855.1471      44760.303    
    210000   933.90309     -17287.624     -16804.879     -48.854386      44702.449    
    211000   906.28225     -17265.214     -16796.747      1398.7475      44691.518    
    212000   932.2478      -17276.54      -16794.651     -3215.2153      44807.702    
    213000   921.95908     -17277.415     -16800.844      4202.1319      44596.885    
    214000   929.51498     -17285.492     -16805.015     -397.18418      44709.8      
    215000   919.0944      -17287.187     -16812.097     -310.06811      44706.93     
    216000   943.63579     -17279.014     -16791.238      2526.9471      44643.584    
    217000   943.06484     -17267.463     -16779.982     -4317.8887      44865.084    
    218000   932.88317     -17279.359     -16797.141      470.11936      44708.464    
    219000   935.33842     -17257.479     -16773.992     -984.73621      44792.613    
    220000   956.4681      -17277.048     -16782.639     -355.46591      44734.636    
    221000   950.42838     -17281.755     -16790.468      780.4045       44692.93     
    222000   942.08532     -17269.098     -16782.123      1348.4473      44700.568    
    223000   957.30956     -17261.204     -16766.359     -2756.1304      44842.593    
    224000   942.64633     -17256.543     -16769.278      3066.0839      44674.777    
    225000   951.55066     -17258.909     -16767.042     -1472.4434      44809.365    
    226000   968.80872     -17266.83      -16766.042      1455.0363      44715.723    
    227000   958.33555     -17268.073     -16772.699      712.18888      44724.236    
    228000   946.99744     -17257.839     -16768.325      269.13735      44757.044    
    229000   946.86577     -17252.954     -16763.508     -2330.6076      44841.253    
    230000   954.57845     -17271.652     -16778.219     -355.33985      44751.265    
    231000   959.49613     -17263.592     -16767.618      1872.4948      44703.583    
    232000   959.79679     -17262.15      -16766.02      -1193.334       44797.031    
    233000   991.14949     -17258.254     -16745.918      1985.5672      44719.523    
    234000   967.08377     -17252.988     -16753.091     -3803.2129      44887.45     
    235000   974.81493     -17253.146     -16749.253      1812.7049      44724.274    
    236000   979.16216     -17242.712     -16736.572     -368.25218      44814.656    
    237000   958.50423     -17247.923     -16752.461     -3523.3898      44879.993    
    238000   979.43543     -17255.825     -16749.544      2918.891       44692.571    
    239000   964.1351      -17256.04      -16757.668     -1694.8194      44823.979    
    240000   985.6268      -17248.657     -16739.175     -1182.6856      44827.562    
    241000   1003.3573     -17245.459     -16726.813      1181.497       44774.521    
    242000   976.78187     -17239.545     -16734.635      216.07531      44795.516    
    243000   987.82158     -17250.163     -16739.547     -932.78127      44815.12     
    244000   1006.1046     -17247.221     -16727.154     -784.32634      44824.119    
    245000   1002.0015     -17239.34      -16721.394      2387.5416      44747.028    
    246000   999.52631     -17243.606     -16726.939      1362.1284      44764.571    
    247000   993.70539     -17239.037     -16725.38      -1099.96        44843.756    
    248000   983.16383     -17242.231     -16734.022     -988.99504      44840.282    
    249000   978.53934     -17245.383     -16739.565      4895.2028      44660.198    
    250000   1006.0232     -17235.467     -16715.442     -1793.5487      44883.839    
    251000   993.25874     -17219.281     -16705.854     -1896.7881      44903.781    
    252000   1019.1487     -17246.261     -16719.451      3304.0248      44713.369    
    253000   985.02951     -17235.746     -16726.573     -3874.2824      44915.202    
    254000   1005.0511     -17230.656     -16711.134     -55.986104      44827.511    
    255000   1004.1107     -17236.338     -16717.302      1364.9581      44776.091    
    256000   1009.5513     -17225.799     -16703.951     -2253.3909      44905.735    
    257000   1018.36       -17218.796     -16692.394     -851.15067      44874.217    
    258000   1012.2021     -17229.835     -16706.617      2847.2424      44746.415    
    259000   1015.4647     -17216.179     -16691.274     -2748.0611      44936.72     
    260000   1007.3337     -17229.632     -16708.93       1992.1508      44774.582    
    261000   1017.5698     -17213.929     -16687.936     -455.12001      44884.996    
    262000   1017.4623     -17220.378     -16694.44      -576.66479      44874.803    
    263000   1029.5663     -17222.794     -16690.6        2099.6402      44794.316    
    264000   1038.4351     -17219.136     -16682.357     -5713.9352      45024.212    
    265000   1026.3394     -17213.157     -16682.631      1020.8556      44839.712    
    266000   1037.5124     -17206.613     -16670.311      902.43592      44877.256    
    267000   1020.6969     -17218.288     -16690.678      1962.0448      44801.341    
    268000   1057.688      -17217.411     -16670.68      -1942.8303      44927.882    
    269000   1017.3655     -17215.401     -16689.513      138.90349      44853.541    
    270000   1006.0159     -17219.187     -16699.166      1317.4656      44821.454    
    271000   1027.2878     -17197.507     -16666.49      -3426.7905      45009.287    
    272000   1048.08       -17191.141     -16649.376      798.41343      44912.973    
    273000   1046.2768     -17217.701     -16676.868     -1689.2345      44935.899    
    274000   1031.1341     -17201.966     -16668.961      2227.7429      44841.274    
    275000   1058.7291     -17202.229     -16654.96       1962.6265      44855.942    
    276000   1063.1571     -17205.678     -16656.12      -7144.9686      45130.308    
    277000   1044.0292     -17201.659     -16661.988      2207.8108      44841.319    
    278000   1058.4136     -17200.303     -16653.197     -135.86775      44924.666    
    279000   1048.981      -17187.503     -16645.273     -1169.1544      44960.885    
    280000   1063.9238     -17191.361     -16641.407      925.95224      44905.523    
    281000   1099.1756     -17185.809     -16617.632     -2355.2832      45013.248    
    282000   1083.1495     -17186.398     -16626.506      2216.4518      44889.373    
    283000   1084.9012     -17201.394     -16640.597      2707.1889      44830.223    
    284000   1064.7358     -17192.151     -16641.777     -1297.7147      44973.166    
    285000   1030.2549     -17204.502     -16671.952     -2032.8621      44950.452    
    286000   1064.1387     -17193.544     -16643.479      1105.3777      44899.199    
    287000   1084.4911     -17180.236     -16619.65      -2378.3536      45023.061    
    288000   1083.1136     -17183.983     -16624.109      146.82643      44956.477    
    289000   1088.2545     -17179.939     -16617.407      968.87738      44938.475    
    290000   1054.2248     -17192.857     -16647.916     -241.9429       44933.829    
    291000   1069.5806     -17179.26      -16626.381      657.11284      44935.839    
    292000   1074.2854     -17184.357     -16629.047     -1578.6939      44994.314    
    293000   1079.737      -17184.282     -16626.153      1023.7112      44920.562    
    294000   1061.1722     -17172.165     -16623.633      1724.6888      44909.575    
    295000   1081.5714     -17177.695     -16618.619     -929.40795      44992.108    
    296000   1082.1213     -17174.611     -16615.25       226.43786      44963.392    
    297000   1105.1281     -17183.35      -16612.097     -1924.9217      45037.607    
    298000   1090.8283     -17166.56      -16602.699     -449.03758      45006.221    
    299000   1094.703      -17187.417     -16621.553      2409.1224      44870.426    
    300000   1113.0623     -17168.962     -16593.607     -1133.1855      45024.752    
    301000   1097.6961     -17166.443     -16599.031      954.51552      44966.614    
    302000   1100.9121     -17171.633     -16602.559     -714.64087      45007.731    
    303000   1107.015      -17166.071     -16593.843     -2023.1205      45057.153    
    304000   1114.5868     -17160.814     -16584.671      1692.2375      44955.223    
    305000   1126.9629     -17166.758     -16584.218     -758.5229       45025.806    
    306000   1104.9738     -17175.376     -16604.202     -2159.3086      45033.664    
    307000   1108.1953     -17162.564     -16589.725      5317.6327      44847.991    
    308000   1127.5798     -17160.571     -16577.712     -2141.297       45089.314    
    309000   1131.6816     -17176.39      -16591.411      442.38184      44967.298    
    310000   1128.4568     -17150.84      -16567.528      1893.6105      44976.58     
    311000   1111.1367     -17148.004     -16573.645     -3424.6286      45137.979    
    312000   1114.4168     -17157.62      -16581.565      2628.8916      44944.156    
    313000   1124.1595     -17165.802     -16584.712     -2171.6409      45076.455    
    314000   1107.1833     -17145.249     -16572.934     -648.17705      45054.458    
    315000   1129.4113     -17142.907     -16559.101      390.10851      45042.237    
    316000   1134.0642     -17153.219     -16567.009     -1141.9867      45069.778    
    317000   1137.62       -17150.951     -16562.902     -2712.9535      45112.408    
    318000   1133.6451     -17165.495     -16579.501      2375.7528      44940.314    
    319000   1133.6671     -17149.55      -16563.545     -1685.9261      45104.721    
    320000   1109.8536     -17151.139     -16577.443     -2559.1838      45112.281    
    321000   1122.9395     -17145.982     -16565.521      2122.3372      44980.16     
    322000   1130.4949     -17147.939     -16563.574     -1832.9825      45093.404    
    323000   1117.9993     -17157.027     -16579.12      -2871.0869      45107.202    
    324000   1146.7535     -17150.452     -16557.682      4305.7938      44920.854    
    325000   1141.5506     -17147.44      -16557.359     -2184.3778      45118.402    
    326000   1103.7682     -17141.774     -16571.224     -784.00533      45072.967    
    327000   1175.0841     -17116.994     -16509.58      -2093.1561      45172.958    
    328000   1137.6116     -17128.082     -16540.037     -779.13108      45112.658    
    329000   1173.7189     -17132.432     -16525.724      2621.6457      45011.869    
    330000   1165.1491     -17139.136     -16536.857     -4743.1507      45210.558    
    331000   1151.3438     -17142.304     -16547.161      131.36684      45050.267    
    332000   1154.5665     -17124.792     -16527.984      1015.1253      45051.779    
    333000   1160.5781     -17120.573     -16520.657     -4125.9237      45230.472    
    334000   1180.3729     -17121.984     -16511.836     -632.1427       45124.706    
    335000   1173.3079     -17119.013     -16512.517      2358.317       45032.194    
    336000   1196.2384     -17133.074     -16514.725     -1181.7807      45129.447    
    337000   1162.5625     -17129.755     -16528.813     -2230.2685      45156.257    
    338000   1143.3323     -17119.861     -16528.859      4527.9871      44962.02     
    339000   1164.7148     -17119.473     -16517.419     -2147.7955      45178.56     
    340000   1161.1863     -17120.255     -16520.025     -1416.6033      45148.623    
    341000   1173.9829     -17105.009     -16498.164     -121.2343       45140.385    
    342000   1151.9581     -17133.98      -16538.519      2660.6557      45002.693    
    343000   1195.9591     -17117.57      -16499.365     -2211.9151      45182.052    
    344000   1180.2682     -17122.539     -16512.445      568.50452      45071.358    
    345000   1185.7672     -17115.157     -16502.221      1788.1178      45065.482    
    346000   1174.8052     -17117.324     -16510.054     -2651.378       45180.663    
    347000   1202.7802     -17112.765     -16491.034      2413.1344      45062.361    
    348000   1200.956      -17116.251     -16495.463      1171.5753      45098.895    
    349000   1192.5528     -17097.339     -16480.895     -1337.9739      45199.451    
    350000   1198.689      -17094.162     -16474.547     -5383.4493      45331.182    
    351000   1203.6135     -17091.859     -16469.697      2648.8255      45087.43     
    352000   1222.2957     -17086.758     -16454.939      55.129938      45197.89     
    353000   1186.1604     -17095.207     -16482.068     -2965.9049      45248.601    
    354000   1213.9813     -17115.131     -16487.61       1835.3507      45071.933    
    355000   1201.4883     -17102.499     -16481.436      2471.2338      45079.465    
    356000   1225.8651     -17086.257     -16452.594     -1384.8952      45244.508    
    357000   1207.048      -17086.384     -16462.447     -184.44533      45192.217    
    358000   1234.2982     -17094.765     -16456.742     -1253.7402      45224.356    
    359000   1218.152      -17096.727     -16467.05       761.65337      45144.864    
    360000   1241.8145     -17088.967     -16447.059     -316.96091      45217.409    
    361000   1236.3219     -17085.178     -16446.109      1232.6286      45180.66     
    362000   1225.1992     -17091.633     -16458.313     -511.20769      45208.758    
    363000   1232.801      -17088.769     -16451.52       434.63451      45190.767    
    364000   1219.2223     -17072.326     -16442.096     -3775.8263      45345.248    
    365000   1242.2082     -17092.666     -16450.554     -1602.6655      45233.442    
    366000   1229.6118     -17087.488     -16451.887      1775.5779      45149.35     
    367000   1244.8494     -17076.058     -16432.581      421.27246      45205.376    
    368000   1233.194      -17072.302     -16434.85      -3817.8824      45355.422    
    369000   1231.3634     -17088.129     -16451.623     -1312.1507      45238.678    
    370000   1243.3492     -17074.764     -16432.063      1292.2615      45197.24     
    371000   1240.5583     -17058.245     -16416.987     -3181.9369      45369.131    
    372000   1218.95       -17056.015     -16425.926     -3409.2074      45363.043    
    373000   1262.2099     -17057.819     -16405.369      2387.3226      45198.81     
    374000   1230.7873     -17090.161     -16453.953      1245.0462      45168.609    
    375000   1247.9046     -17077.449     -16432.393     -4004.9189      45343.83     
    376000   1245.1995     -17056.454     -16412.797      778.05897      45260.24     
    377000   1255.4535     -17061.374     -16412.416     -317.26917      45294.662    
    378000   1243.1774     -17068.797     -16426.184      729.84714      45226.539    
    379000   1276.6499     -17060.964     -16401.049      4616.9996      45134.705    
    380000   1252.585      -17071.272     -16423.796     -745.99054      45262.068    
    381000   1234.6816     -17055.34      -16417.119     -1121.6408      45304.142    
    382000   1248.9714     -17069.873     -16424.265     -1734.993       45302.208    
    383000   1250.7877     -17064.942     -16418.396     -48.406039      45261.453    
    384000   1244.2959     -17056.73      -16413.539     -748.7134       45290.468    
    385000   1255.5732     -17050.209     -16401.189     -1178.9754      45328.042    
    386000   1275.1693     -17061.563     -16402.414      3392.9947      45160.905    
    387000   1280.236      -17068.323     -16406.554      267.5111       45248.267    
    388000   1260.9717     -17059.783     -16407.973     -5645.3014      45438.28     
    389000   1278.328      -17062.779     -16401.996      1291.0275      45228.684    
    390000   1274.5033     -17056.155     -16397.35       2304.6811      45214.65     
    391000   1269.3365     -17059.142     -16403.007      9.4104401      45272.681    
    392000   1299.7062     -17044.871     -16373.038     -2078.8203      45394.477    
    393000   1265.7467     -17043.75      -16389.472      2748.2618      45218.026    
    394000   1288.6073     -17055.316     -16389.221     -6560.0135      45486.413    
    395000   1279.9627     -17056.491     -16394.864      215.88568      45277.384    
    396000   1310.8748     -17045.526     -16367.92       1344.2701      45274.329    
    397000   1286.4299     -17046.019     -16381.049      2259.8286      45231.367    
    398000   1308.139      -17062.543     -16386.351     -2628.1037      45361.309    
    399000   1338.9262     -17043.69      -16351.584      1384.4684      45295.986    
    400000   1305.8924     -17038.757     -16363.727      535.11286      45312.182    
    401000   1318.1788     -17053.577     -16372.195     -2549.8655      45376.73     
    402000   1299.737      -17027.911     -16356.062      947.47866      45330.565    
    403000   1331.9103     -17036.855     -16348.376     -937.61415      45365.807    
    404000   1321.1884     -17033.398     -16350.461      924.56682      45328.295    
    405000   1302.3217     -17039.16      -16365.975      2962.3162      45231.294    
    406000   1309.2546     -17029.43      -16352.662     -1131.5668      45389.499    
    407000   1338.5143     -17034.371     -16342.477      84.030667      45349.684    
    408000   1333.6705     -17022.584     -16333.194     -596.44735      45396.798    
    409000   1329.3312     -17020.738     -16333.591      2079.1102      45322.297    
    410000   1299.9403     -17032.275     -16360.321      3204.8016      45253.824    
    411000   1307.7709     -17030.65      -16354.648     -194.71116      45347.978    
    412000   1354.0119     -17025.331     -16325.427     -412.26993      45388.068    
    413000   1328.0537     -17023.634     -16337.148      3442.3752      45242.2      
    414000   1326.6636     -17006.352     -16320.585      1422.3354      45371.703    
    415000   1326.6944     -16997.206     -16311.422     -4848.4386      45565.083    
    416000   1316.8809     -17012.303     -16331.593     -454.95484      45404.757    
    417000   1359.1402     -17010.32      -16307.765     -608.62377      45434.442    
    418000   1320.9722     -17013.053     -16330.227     -697.36943      45400.439    
    419000   1327.8764     -17015.285     -16328.891      3174.2094      45286.603    
    420000   1350.6551     -16989.829     -16291.66      -2925.2268      45557.197    
    421000   1375.3989     -16999.856     -16288.897     -628.81474      45465.966    
    422000   1337.4045     -16993.608     -16302.289      3119.7113      45337.828    
    423000   1359.5309     -17015.039     -16312.282     -1574.8159      45446.751    
    424000   1335.8096     -17021.667     -16331.172     -2344.1283      45442.563    
    425000   1360.3058     -17016.062     -16312.905      2374.6074      45331.523    
    426000   1337.7055     -16991.43      -16299.955      1530.5697      45397.394    
    427000   1329.3213     -16992.477     -16305.335     -5635.701       45650.461    
    428000   1353.4571     -16989.313     -16289.696     -1695.7984      45510.991    
    429000   1348.1714     -16991.674     -16294.789      2049.6488      45392.277    
    430000   1357.1423     -16999.061     -16297.539     -410.45052      45463.97     
    431000   1391.3714     -16972.916     -16253.701     -4217.0535      45638.78     
    432000   1359.6158     -17004.86      -16302.059      181.98094      45417.53     
    433000   1365.8096     -17004.126     -16298.123      636.65841      45409.168    
    434000   1376.2129     -16985.652     -16274.272      3494.6628      45355.47     
    435000   1377.6574     -16995.01      -16282.883      3457.7458      45352.752    
    436000   1392.2856     -16986.404     -16266.716     -1059.3836      45506.677    
    437000   1356.6303     -16977.229     -16275.972     -390.15806      45488.85     
    438000   1357.1196     -16980.682     -16279.172      3244.9984      45364.949    
    439000   1394.5897     -16988.781     -16267.902     -2738.8775      45548.955    
    440000   1386.7501     -16990.463     -16273.636     -155.94368      45475.38     
    441000   1368.5277     -16980.476     -16273.068      5122.3148      45328.653    
    442000   1405.8525     -16997.08      -16270.379      495.03696      45446.871    
    443000   1389.2708     -16978.425     -16260.295      2774.3041      45404.92     
    444000   1356.9608     -16978.884     -16277.456     -1703.2414      45520.683    
    445000   1410.9194     -16983.086     -16253.766     -1614.6678      45530.522    
    446000   1385.8121     -16979.239     -16262.897     -1301.7795      45519.913    
    447000   1385.596      -16978.566     -16262.335      3139.8405      45382.842    
    448000   1387.7622     -16969.26      -16251.91       1588.0389      45452.882    
    449000   1397.719      -16985.336     -16262.839     -1452.1426      45515.812    
    450000   1392.1133     -16958.636     -16239.037      433.3618       45506.722    
    451000   1364.2274     -16963.997     -16258.812     -3276.7038      45601.174    
    452000   1428.0055     -16947.555     -16209.402      1156.2951      45525.461    
    453000   1384.0837     -16961.571     -16246.122      949.53105      45477.522    
    454000   1418.8202     -16951.443     -16218.039     -339.12677      45578.786    
    455000   1403.7111     -16953.502     -16227.907     -4633.7381      45710.637    
    456000   1440.7872     -16945.823     -16201.064     -1268.1358      45626.378    
    457000   1391.7339     -16942.299     -16222.896      671.6595       45550.1      
    458000   1450.7024     -16948.845     -16198.961     -1979.2028      45659.764    
    459000   1409.3089     -16958.127     -16229.639     -5422.9944      45716.119    
    460000   1426.6636     -16962.076     -16224.617     -672.33252      45580.435    
    461000   1443.1525     -16952.711     -16206.729      973.3532       45545.998    
    462000   1444.23       -16933.252     -16186.714      4497.2337      45479.134    
    463000   1418.3464     -16948.048     -16214.888      1080.2287      45535.149    
    464000   1415.8457     -16940.044     -16208.177     -2214.1738      45665.081    
    465000   1409.5968     -16922.168     -16193.532     -1316.8354      45663.924    
    466000   1405.7606     -16949.396     -16222.743      3243.0962      45473.914    
    467000   1431.3461     -16931.38      -16191.501     -215.65571      45617.81     
    468000   1451.8073     -16922.925     -16172.469     -5201.1828      45812.602    
    469000   1455.0768     -16936.38      -16184.234     -2286.8203      45695.17     
    470000   1423.4571     -16957.874     -16222.073      1979.1408      45482.03     
    471000   1468.9104     -16953.056     -16193.759      3431.0214      45463.776    
    472000   1450.6605     -16935.309     -16185.446     -1319.3848      45657.115    
    473000   1457.4536     -16920.736     -16167.361     -3967.5926      45757.172    
    474000   1466.9971     -16929.798     -16171.491     -1244.4494      45677.727    
    475000   1440.8003     -16929.582     -16184.816      1667.4567      45570.245    
    476000   1450.2307     -16916.743     -16167.102      1623.2506      45611.266    
    477000   1433.8794     -16936.002     -16194.813     -1302.6951      45640.23     
    478000   1444.9219     -16936.203     -16189.307     -4302.7033      45756.097    
    479000   1468.4646     -16913.979     -16154.913     -1399.6159      45704.85     
    480000   1461.634      -16942.672     -16187.137     -1554.7668      45653.085    
    481000   1474.357      -16907.382     -16145.27       901.65116      45658.218    
    482000   1426.3218     -16917.67      -16180.388      6226.9483      45443.89     
    483000   1471.3982     -16924.934     -16164.352     -1627.6621      45709.636    
    484000   1464.621      -16929.016     -16171.936     -581.77499      45643.242    
    485000   1484.3276     -16912.631     -16145.365      1801.0502      45629.495    
    486000   1514.8949     -16934.378     -16151.312      2570.484       45552.489    
    487000   1471.8641     -16914.123     -16153.3        1700.4588      45615.669    
    488000   1472.8688     -16895.834     -16134.491     -985.02087      45748.691    
    489000   1510.3763     -16903.506     -16122.775     -2819.6784      45816.246    
    490000   1493.0092     -16915.432     -16143.678      534.73603      45646.086    
    491000   1494.0453     -16905.118     -16132.829      3051.3186      45599.006    
    492000   1448.8308     -16902.111     -16153.194      2478.8966      45609.579    
    493000   1498.1011     -16899.454     -16125.068     -1968.3704      45773.376    
    494000   1489.5652     -16892.58      -16122.607      2.6245171      45724.61     
    495000   1494.361      -16885.313     -16112.861      4004.0675      45627.765    
    496000   1489.3188     -16892.111     -16122.265      2642.6199      45641.768    
    497000   1489.7653     -16908.467     -16138.391      1387.0353      45666.829    
    498000   1494.5408     -16882.308     -16109.763      3220.2426      45646.739    
    499000   1514.9526     -16885.561     -16102.465     -1651.9059      45817.452    
    500000   1488.6827     -16906.66      -16137.143     -1393.5112      45757.958    
    501000   1500.5204     -16899.838     -16124.202     -383.72133      45710.72     
    502000   1487.462      -16898.15      -16129.264      2486.0167      45647.917    
    503000   1515.99       -16887.368     -16103.736      209.29835      45738.704    
    504000   1519.5462     -16893.369     -16107.898     -3549.1656      45862.002    
    505000   1512.2342     -16870.21      -16088.519     -288.51459      45791.976    
    506000   1499.6069     -16883.82      -16108.656      2243.3581      45683.089    
    507000   1489.3514     -16863.161     -16093.299     -2006.4063      45842.919    
    508000   1515.9119     -16887.494     -16103.902     -2579.3514      45830.422    
    509000   1512.7078     -16859.71      -16077.774     -581.72681      45818.082    
    510000   1546.5059     -16856.513     -16057.107      71.729839      45830.737    
    511000   1486.1209     -16889.253     -16121.061     -4538.726       45881.883    
    512000   1540.3584     -16861.356     -16065.128     -1308.9869      45866.02     
    513000   1544.8624     -16879.639     -16081.083      2070.8942      45709.78     
    514000   1531.8177     -16897.842     -16106.028      4508.3318      45593.938    
    515000   1531.4755     -16881.102     -16089.465      2419.5869      45672.323    
    516000   1576.4857     -16865.934     -16051.031      183.50723      45796.262    
    517000   1520.342      -16865.281     -16079.399      1942.0296      45766.231    
    518000   1538.6127     -16871.892     -16076.565      4935.2372      45621.02     
    519000   1531.7814     -16855.637     -16063.842     -867.6729       45863.059    
    520000   1523.409      -16857.689     -16070.221     -2677.2719      45926.301    
    521000   1525.5532     -16853.177     -16064.602      420.95654      45815.445    
    522000   1539.5469     -16859.308     -16063.499      955.4708       45788.91     
    523000   1539.7079     -16878.173     -16082.281      3043.7957      45652.789    
    524000   1536.4017     -16853.749     -16059.565     -1980.1661      45909.637    
    525000   1529.5953     -16852.93      -16062.264     -4361.8821      45971.23     
    526000   1548.739      -16838.524     -16037.963     -1325.002       45937.434    
    527000   1587.7447     -16840.074     -16019.35       210.5942       45861.478    
    528000   1566.5239     -16849.498     -16039.744      3260.7966      45732.253    
    529000   1542.9196     -16837.114     -16039.561     -1689.3428      45944.323    
    530000   1564.4601     -16849.589     -16040.902     -2690.3679      45937.83     
    531000   1532.8391     -16825.363     -16033.021      1486.5541      45861.591    
    532000   1570.5905     -16845.437     -16033.581      6063.9309      45670.88     
    533000   1590.5761     -16836.762     -16014.575      675.86803      45883.662    
    534000   1573.9112     -16841.079     -16027.506     -2330.8847      45959.94     
    535000   1596.0597     -16813.822     -15988.801     -2087.2962      46037.198    
    536000   1549.7028     -16834.464     -16033.405      277.46497      45879.147    
    537000   1568.2647     -16823.174     -16012.52      -2622.5705      46017.01     
    538000   1562.4572     -16825.459     -16017.807      1601.1215      45846.725    
    539000   1562.6404     -16824.077     -16016.33       676.82365      45906.876    
    540000   1543.6088     -16815.081     -16017.172     -1917.4841      45981.034    
    541000   1588.4034     -16809.513     -15988.449     -3405.1939      46074.844    
    542000   1581.3534     -16816.362     -15998.943     -859.94579      45984.346    
    543000   1592.6518     -16811.918     -15988.658      1165.1938      45922.539    
    544000   1565.5552     -16830.274     -16021.021     -42.959679      45918.089    
    545000   1563.3482     -16839.1       -16030.988     -681.36375      45895.603    
    546000   1638.9904     -16827.169     -15979.957     -1278.3064      45983.69     
    547000   1607.4758     -16810.757     -15979.835      3239.0552      45871.838    
    548000   1608.7043     -16819.698     -15988.141      2497.0716      45876.386    
    549000   1589.6216     -16833.486     -16011.793      2568.2831      45821.431    
    550000   1580.1749     -16816.004     -15999.194     -2255.1802      46029.779    
    551000   1625.3354     -16830.363     -15990.208     -1937.7418      45977.633    
    552000   1624.7565     -16821.794     -15981.939      783.4352       45913.302    
    553000   1593.505      -16823.536     -15999.835      3468.3139      45853.09     
    554000   1629.5614     -16831.032     -15988.693      347.35839      45917.58     
    555000   1639.1114     -16811.482     -15964.206     -2148.9819      46033.155    
    556000   1641.0832     -16813.263     -15964.969      1372.9181      45899.131    
    557000   1619.8645     -16793.198     -15955.872      2918.4391      45925.016    
    558000   1597.8978     -16789.652     -15963.681      2631.1682      45917.385    
    559000   1630.2371     -16813.382     -15970.694     -1593.1518      46034.718    
    560000   1566.6738     -16807.66      -15997.828     -1886.269       46031.255    
    561000   1652.9714     -16802.315     -15947.875     -3964.4853      46114.538    
    562000   1637.8319     -16786.62      -15940.006     -2695.717       46107.678    
    563000   1610.0648     -16791.855     -15959.594      628.6792       46004.39     
    564000   1642.148      -16775.875     -15927.03       866.32183      46045.028    
    565000   1692.974      -16797.813     -15922.695      1892.7393      45952.703    
    566000   1640.868      -16787.051     -15938.867     -1165.4837      46096.715    
    567000   1627.9695     -16782.959     -15941.443     -2208.7981      46118.693    
    568000   1647.8169     -16775.171     -15923.395     -1933.1767      46117.269    
    569000   1595.3837     -16804.196     -15979.525     -5715.444       46140.972    
    570000   1657.837      -16798.277     -15941.322     -92.66394       46036.904    
    571000   1649.2413     -16776.581     -15924.07       3298.5596      45957.854    
    572000   1666.1616     -16752.722     -15891.464      700.78703      46115.319    
    573000   1630.6321     -16743.471     -15900.579      1309.4991      46111.467    
    574000   1646.1499     -16793.012     -15942.099     -2043.1309      46087.987    
    575000   1644.8162     -16768.561     -15918.337     -3084.2048      46175.653    
    576000   1619.1855     -16751.713     -15914.738      506.91269      46113.3      
    577000   1637.1952     -16745.138     -15898.853     -105.59463      46168.433    
    578000   1647.9717     -16763.779     -15911.923     -1692.1015      46157.964    
    579000   1636.0663     -16762.993     -15917.292     -1124.4548      46115.504    
    580000   1673.2492     -16787.022     -15922.1       -1633.7312      46107.58     
    581000   1687.5601     -16786.744     -15914.425      1448.2412      45977.001    
    582000   1651.0112     -16763.155     -15909.728      1381.2996      46054.753    
    583000   1665.8568     -16765.708     -15904.608      230.20914      46105.112    
    584000   1677.8602     -16728.738     -15861.433      1284.76        46165.58     
    585000   1709.2535     -16755.669     -15872.137      3149.7417      46031.573    
    586000   1663.018      -16751.971     -15892.338      3843.4328      45994.983    
    587000   1639.893      -16757.467     -15909.788      1980.2225      46023.589    
    588000   1684.0217     -16732.617     -15862.127     -1304.7059      46217.25     
    589000   1684.8598     -16735.906     -15864.983     -675.90205      46199.876    
    590000   1669.0012     -16757.65      -15894.924     -5473.5774      46296.797    
    591000   1681.9833     -16753.73      -15884.294     -3423.5152      46256.074    
    592000   1683.4144     -16759.896     -15889.72       1203.9444      46092.281    
    593000   1701.7194     -16739.888     -15860.25       1729.0099      46128.753    
    594000   1707.7028     -16740.688     -15857.957      2555.6638      46081.441    
    595000   1711.7231     -16756.679     -15871.87       51.462807      46108.855    
    596000   1701.9425     -16738.295     -15858.541      1156.8822      46133.644    
    597000   1693.3038     -16753.199     -15877.911      2803.1939      46060.148    
    598000   1688.7991     -16742.272     -15869.313      2378.0414      46086.69     
    599000   1712.4821     -16741.165     -15855.964      261.58655      46167.47     
    600000   1712.0773     -16733.603     -15848.611     -3168.9264      46319.137    
    601000   1722.9472     -16736.604     -15845.993     -1676.1823      46258.295    
    602000   1674.3138     -16759.288     -15893.816      1462.323       46067.241    
    603000   1704.4008     -16725.13      -15844.106      1882.0272      46181.293    
    604000   1747.7845     -16728.628     -15825.178      820.01742      46199.577    
    605000   1691.8869     -16730.251     -15855.696     -862.52388      46217.825    
    606000   1715.9065     -16747.877     -15860.905     -4838.7086      46327.169    
    607000   1690.5721     -16731.038     -15857.162     -858.91341      46262.227    
    608000   1708.7904     -16741.677     -15858.384      752.67747      46151.872    
    609000   1719.3103     -16728.916     -15840.185     -258.56754      46212.496    
    610000   1725.7206     -16738.035     -15845.991     -4902.992       46386.094    
    611000   1727.6679     -16740.38      -15847.328     -2951.7185      46287.561    
    612000   1766.7472     -16696.839     -15783.588      837.31613      46277.093    
    613000   1745.865      -16674.72      -15772.263      1725.6369      46327.003    
    614000   1758.7566     -16722.268     -15813.147      2809.8245      46178.234    
    615000   1761.917      -16728.053     -15817.298      3492.8782      46124.75     
    616000   1728.0537     -16697.644     -15804.394     -613.83639      46320.4      
    617000   1741.5437     -16721.509     -15821.285     -3175.6394      46349.011    
    618000   1725.2606     -16706.075     -15814.268     -879.87635      46311.676    
    619000   1743.348      -16711.852     -15810.696      870.70503      46232.867    
    620000   1733.9191     -16731.868     -15835.586     -1221.7734      46267.089    
    621000   1737.1316     -16727.445     -15829.502     -3096.5644      46343.584    
    622000   1747.7274     -16679.112     -15775.692     -570.92868      46384.379    
    623000   1777.3602     -16707.741     -15789.003      727.44093      46268.688    
    624000   1719.7965     -16666.5       -15777.518     -195.53455      46382.03     
    625000   1746.3549     -16694.683     -15791.972     -265.53638      46302.594    
    626000   1740.8022     -16680.29      -15780.45      -481.18983      46379.347    
    627000   1740.3912     -16702.009     -15802.381      3115.3332      46158.654    
    628000   1782.8886     -16666.313     -15744.717      3224.709       46288.966    
    629000   1746.1696     -16687.899     -15785.284      1316.6616      46275.791    
    630000   1773.553      -16680.59      -15763.82       3518.2224      46229.12     
    631000   1773.0969     -16654.078     -15737.544     -1127.6188      46481.928    
    632000   1769.3775     -16680.807     -15766.196     -1781.1242      46439.87     
    633000   1746.1136     -16668.244     -15765.658     -1053.4013      46426.992    
    634000   1784.2909     -16658.176     -15735.856     -3059.5723      46531.178    
    635000   1788.6959     -16699.905     -15775.308      1717.7209      46246.012    
    636000   1760.4388     -16684.502     -15774.511      470.95356      46345.294    
    637000   1744.0731     -16681.269     -15779.738     -1285.0697      46377.561    
    638000   1782.9991     -16649.712     -15728.059      990.90062      46400.986    
    639000   1776.867      -16653.911     -15735.429      4789.1133      46268.483    
    640000   1796.4843     -16668.312     -15739.689      1887.1271      46327.429    
    641000   1810.5138     -16632.055     -15696.18       829.81073      46484.651    
    642000   1830.0204     -16698.035     -15752.077      7275.1748      46110.228    
    643000   1801.9269     -16663.973     -15732.536      3052.6963      46314.203    
    644000   1795.7348     -16662.097     -15733.861      956.49422      46388.657    
    645000   1827.6517     -16673.086     -15728.352      2684.1836      46313.393    
    646000   1775.722      -16630.732     -15712.841      5341.9757      46332.528    
    647000   1813.8693     -16629.961     -15692.351     -33.883332      46525.367    
    648000   1794.1946     -16645.9       -15718.46      -2168.2456      46524.376    
    649000   1832.4871     -16664.02      -15716.786     -721.2776       46452.282    
    650000   1795.3312     -16664.662     -15736.635     -1871.4799      46499.962    
    651000   1777.7923     -16626.573     -15707.612     -1903.43        46617.09     
    652000   1810.2095     -16651.593     -15715.876     -4719.2824      46625.115    
    653000   1793.9683     -16637.109     -15709.787     -2434.7202      46590.766    
    654000   1796.1984     -16642.758     -15714.282     -1861.9748      46523.629    
    655000   1801.4498     -16591.967     -15660.778     -7475.8564      46870.369    
    656000   1801.6876     -16622.272     -15690.959     -2144.8001      46616.595    
    657000   1804.1221     -16629.774     -15697.203     -1261.7775      46570.45     
    658000   1814.2988     -16629.475     -15691.644     -1573.9801      46579.422    
    659000   1801.6185     -16616.364     -15685.087      2260.09        46473.829    
    660000   1830.8091     -16649.463     -15703.097      3863.3621      46341.671    
    661000   1855.1111     -16609.059     -15650.131      1450.5082      46519.281    
    662000   1825.5458     -16618.044     -15674.399      131.42938      46562.868    
    663000   1843.0897     -16605.999     -15653.285      826.46769      46579.01     
    664000   1814.7476     -16633.556     -15695.493      1401.3018      46446.121    
    665000   1829.49       -16607.073     -15661.389     -717.55563      46629.722    
    666000   1835.8452     -16594.928     -15645.958     -2440.6271      46693.829    
    667000   1841.0465     -16602.801     -15651.144     -239.1515       46605.759    
    668000   1832.0471     -16626.888     -15679.882      3723.4066      46364.355    
    669000   1834.5903     -16599.219     -15650.898      4731.9562      46507.821    
    670000   1861.1242     -16621.164     -15659.127      1985.6926      46503.58     
    671000   1850.6288     -16596.842     -15640.231     -2031.8801      46695.613    
    672000   1860.8614     -16611.763     -15649.863     -2915.0969      46707.865    
    673000   1844.4778     -16598.705     -15645.273     -387.82372      46642.956    
    674000   1849.0403     -16603.776     -15647.986      3952.5519      46457.323    
    675000   1845.8057     -16632.833     -15678.715      2884.2926      46425.641    
    676000   1862.963      -16586.461     -15623.474      1309.9103      46631.771    
    677000   1848.0955     -16565.972     -15610.671      5261.7629      46544.949    
    678000   1825.8458     -16605.873     -15662.072      2541.7365      46488.614    
    679000   1883.4493     -16607.84      -15634.264      1415.7599      46536.163    
    680000   1867.7511     -16595.919     -15630.457      2454.6431      46571.961    
    681000   1882.8076     -16585.048     -15611.803      5849.3685      46471.134    
    682000   1878.1796     -16587.331     -15616.478      1218.8906      46599.531    
    683000   1885.1243     -16599.457     -15625.015      550.835        46618.736    
    684000   1868.0037     -16573.825     -15608.233     -1855.8536      46741.048    
    685000   1874.9316     -16583.659     -15614.485     -2391.496       46747.763    
    686000   1894.5244     -16617.958     -15638.657     -5996.3689      46805.332    
    687000   1833.6674     -16617.412     -15669.569      333.92895      46541.84     
    688000   1857.1381     -16569.461     -15609.485      1354.5079      46645.767    
    689000   1849.2134     -16547.666     -15591.786     -4540.8394      46930.098    
    690000   1880.0719     -16567.093     -15595.262     -3905.0727      46851.259    
    691000   1847.8019     -16578.112     -15622.963      579.35493      46647.68     
    692000   1838.6684     -16585.058     -15634.629      1318.629       46593.571    
    693000   1908.1829     -16558.326     -15571.964      3746.3663      46656.137    
    694000   1918.8872     -16563.909     -15572.015      616.61088      46715.84     
    695000   1884.8197     -16567.266     -15592.981      2424.5427      46620.711    
    696000   1905.413      -16545.094     -15560.164      4378.2509      46640.219    
    697000   1879.2207     -16561.651     -15590.26       1891.3368      46650.119    
    698000   1923.457      -16563.989     -15569.732      773.78973      46759.764    
    699000   1882.3781     -16547.004     -15573.981      568.16831      46776.505    
    700000   1890.1202     -16547.777     -15570.753     -96.227864      46769.932    
    701000   1894.2616     -16512.918     -15533.753     -3285.9962      47038.955    
    702000   1926.4279     -16536.023     -15540.231     -2985.5294      46921.421    
    703000   1901.2609     -16555.871     -15573.088     -1891.7526      46808.11     
    704000   1891.7201     -16544.255     -15566.404      383.90096      46760.421    
    705000   1892.2367     -16502.943     -15524.824      1804.5242      46820.899    
    706000   1899.2451     -16568.512     -15586.771      2543.2109      46591.713    
    707000   1939.5758     -16548.984     -15546.395     -2620.8477      46893.058    
    708000   1909.3647     -16499.514     -15512.542     -5057.9296      47114.66     
    709000   1935.7498     -16548.039     -15547.428     -2445.4492      46898.671    
    710000   1861.3288     -16523.095     -15560.953     -1619.7383      46915.08     
    711000   1928.6024     -16515.804     -15518.887     -3696.8912      47035.184    
    712000   1920.9352     -16511.848     -15518.894     -3746.6896      47030.834    
    713000   1921.6115     -16519.044     -15525.741      723.0689       46841.664    
    714000   1927.1519     -16556.1       -15559.934      1409.8473      46714.111    
    715000   1955.1625     -16514.344     -15503.698      3847.1133      46718.182    
    716000   1914.7927     -16535.156     -15545.378     -660.50351      46864.295    
    717000   1922.058      -16502.867     -15509.334     -4102.6131      47055.201    
    718000   1898.2479     -16482.81      -15501.584     -3837.7617      47092.052    
    719000   1934.9185     -16492.026     -15491.845     -534.36995      46978.27     
    720000   1914.3533     -16492.63      -15503.08       526.37448      46929.667    
    721000   1921.0882     -16499.816     -15506.784      1014.2307      46934.698    
    722000   1916.6554     -16497.647     -15506.906     -2323.9874      47031.104    
    723000   1930.1159     -16532.741     -15535.042     -3033.6399      46964.38     
    724000   1939.2821     -16505.951     -15503.514     -1737.6762      46981.435    
    725000   1955.4216     -16496.557     -15485.778      774.42663      46969.81     
    726000   1966.6603     -16506.195     -15489.606      740.21853      46907.051    
    727000   1955.746      -16531.283     -15520.335     -605.36822      46890.007    
    728000   1942.9264     -16490.046     -15485.726      1456.1553      46901.407    
    729000   1905.9773     -16474.288     -15489.067      3889.5369      46890.798    
    730000   1979.661      -16474.767     -15451.458     -1018.0433      47054.464    
    731000   1948.2457     -16463.926     -15456.856     -5796.9872      47255.476    
    732000   1910.1126     -16487.749     -15500.39      -3326.7926      47108.841    
    733000   1981.788      -16457.562     -15433.153     -1572.4951      47137.157    
    734000   1951.1852     -16495.089     -15486.499      370.21702      46958.147    
    735000   1983.6993     -16509.275     -15483.878     -481.7197       46966.479    
    736000   1944.8676     -16490.589     -15485.264     -293.40086      46948.935    
    737000   1947.0581     -16450.956     -15444.5        707.34803      47039.027    
    738000   1977.561      -16459.81      -15437.586      800.07996      47064.46     
    739000   1953.8767     -16469.451     -15459.47       739.56567      47001.168    
    740000   1972.2858     -16507.115     -15487.618      6809.7381      46715.87     
    741000   2031.2742     -16445.313     -15395.325      1002.3127      47119.771    
    742000   1976.3088     -16461.232     -15439.655      1494.6397      47048.537    
    743000   1997.9651     -16495.89      -15463.119      769.83848      46964.93     
    744000   1968.1327     -16457.719     -15440.369     -1817.109       47176.429    
    745000   1984.1692     -16464.736     -15439.096     -3668.0346      47217.074    
    746000   1982.1821     -16424.259     -15399.647     -1070.9703      47250.427    
    747000   1990.5241     -16441.242     -15412.317      158.54719      47117.823    
    748000   1986.2129     -16459.83      -15433.134      102.74572      47065.488    
    749000   1993.1705     -16427.122     -15396.83      -2258.365       47284.448    
    750000   2002.2228     -16453.942     -15418.97       2366.07        47035.474    
    751000   2030.2667     -16459.35      -15409.882      3938.9014      46974.591    
    752000   1989.3645     -16415.584     -15387.259      1741.7677      47148.969    
    753000   2024.5571     -16469.833     -15423.317     -103.38284      47038.63     
    754000   1994.689      -16465.849     -15434.771     -6804.4476      47331.544    
    755000   2008.802      -16397.577     -15359.205     -511.18669      47268.715    
    756000   1943.3512     -16408.973     -15404.433     -2723.5148      47307.439    
    757000   2018.8279     -16402.335     -15358.78      -5370.0396      47446.314    
    758000   2011.4362     -16425.953     -15386.219     -2527.0673      47301.774    
    759000   2064.8697     -16468.447     -15401.093     -3191.7652      47247.253    
    760000   2056.6393     -16412.924     -15349.824     -4140.5933      47411.653    
    761000   2092.1827     -16420.197     -15338.724     -2400.5058      47335.603    
    762000   2014.905      -16413.512     -15371.985      751.26893      47193.747    
    763000   2032.9751     -16397.176     -15346.308      1532.6079      47233.72     
    764000   1989.2606     -16385.772     -15357.501      1163.3938      47219.532    
    765000   2012.9488     -16387.018     -15346.502     -1754.1062      47445.913    
    766000   2022.9415     -16400.071     -15354.389     -433.18583      47285.657    
    767000   2008.5062     -16383.092     -15344.872      1099.4432      47277.594    
    768000   2069.9017     -16420.643     -15350.688      1464.3876      47186.928    
    769000   2054.9777     -16413.936     -15351.694      2207.7001      47163.679    
    770000   2032.2982     -16365.129     -15314.611     -505.73497      47431.374    
    771000   2093.4136     -16365.841     -15283.732      3160.1658      47351.776    
    772000   2029.9808     -16409.319     -15359.999      717.61081      47234.984    
    773000   2038.2669     -16378.667     -15325.064      2247.5449      47244.475    
    774000   2033.8131     -16375.188     -15323.887      885.42525      47381.513    
    775000   2028.1348     -16410.519     -15362.153     -1824.4347      47289.132    
    776000   2046.7439     -16397.576     -15339.591     -568.26013      47323.278    
    777000   2041.968      -16426.373     -15370.856      1410.5949      47137.385    
    778000   2046.4135     -16360.933     -15303.118      4893.275       47242.979    
    779000   2013.2914     -16399.261     -15358.568      1331.3155      47283.38     
    780000   2024.0385     -16410.025     -15363.777      4004.5866      47141.83     
    781000   2087.2549     -16356.716     -15277.791      1974.414       47370.474    
    782000   2058.807      -16351.876     -15287.655      6426.6432      47246.282    
    783000   2046.0956     -16353.453     -15295.803      2176.3626      47366.846    
    784000   2036.0656     -16340.751     -15288.286      3066.9089      47350.013    
    785000   2073.4512     -16390.247     -15318.457      6331.3344      47095.862    
    786000   2100.1918     -16375.67      -15290.057      2170.0181      47315.697    
    787000   2080.7847     -16351.678     -15276.096      930.87056      47403.894    
    788000   2043.6803     -16378.753     -15322.351      333.88698      47344.048    
    789000   2089.6265     -16323.177     -15243.025     -413.02859      47573.701    
    790000   2059.8728     -16385.991     -15321.22       1081.7718      47305.093    
    791000   2100.9461     -16302         -15215.998      1872.1412      47592.1      
    792000   2083.3478     -16361.366     -15284.46       1098.9202      47400.171    
    793000   2081.2932     -16334.074     -15258.23       332.0146       47527.734    
    794000   2056.4105     -16330.847     -15267.865     -777.26322      47555.6      
    795000   2081.4207     -16279.07      -15203.16      -2174.4838      47762.769    
    796000   2063.1601     -16304.565     -15238.094     -3791.1678      47727.01     
    797000   2076.5122     -16344.151     -15270.779     -4682.6371      47669.023    
    798000   2083.7755     -16283.946     -15206.819     -2919.2096      47829.28     
    799000   2102.4105     -16350.891     -15264.131     -1653.5951      47530.721    
    800000   2098.9456     -16319.277     -15234.308     -711.10274      47603.975    
    801000   2081.1766     -16309.078     -15233.294     -452.63689      47616.475    
    802000   2098.6145     -16319.89      -15235.092      227.46984      47567.512    
    803000   2070.0631     -16319.859     -15249.82       1314.0219      47537.728    
    804000   2119.7812     -16334.214     -15238.475      1343.4477      47501.311    
    805000   2126.4272     -16275.397     -15176.223     -349.88002      47781.415    
    806000   2153.8185     -16281.895     -15168.562     -961.13259      47773.626    
    807000   2123.3226     -16277.766     -15180.196      1405.0718      47706.037    
    808000   2058.5067     -16310.191     -15246.125      4442.88        47391.452    
    809000   2109.2668     -16281.67      -15191.366      1769.52        47620.061    
    810000   2117.9037     -16249.036     -15154.268     -329.55204      47825.061    
    811000   2137.0567     -16250.984     -15146.315      1671.8082      47739.454    
    812000   2092.9971     -16284.152     -15202.259      187.31803      47680.525    
    813000   2097.1312     -16266.983     -15182.952     -950.67146      47774.274    
    814000   2113.8306     -16259.85      -15167.187     -748.426        47840.609    
    815000   2095.9676     -16252.668     -15169.238     -509.95162      47836.474    
    816000   2149.2027     -16228.584     -15117.637     -1801.4506      47957.01     
    817000   2099.2735     -16267.779     -15182.641     -1155.7339      47806.09     
    818000   2100.1871     -16172.988     -15087.378     -3770.7122      48240.217    
    819000   2131.6881     -16125.284     -15023.391     -2554.9956      48445.395    
    820000   2163.0576     -16110.318     -14992.209     -3727.629       48566.715    
    821000   2172.6154     -16074.021     -14950.971      78.351378      48597.861    
    822000   2181.7277     -15984.539     -14856.779      1817.7944      48893.092    
    823000   2114.3805     -15959.008     -14866.061     -203.11105      49013.241    
    824000   2124.1265     -15827.117     -14729.132     -4250.5681      49797.919    
    825000   2136.6956     -15700.183     -14595.701     -92.675955      50182.34     
    826000   2179.9562     -15640.173     -14513.328      1600.7042      50436.299    
    827000   2174.9372     -15603.026     -14478.776      4345.9051      50561.337    
    828000   2155.7739     -15567.103     -14452.759      777.8371       50941.262    
    829000   2141.3839     -15550.07      -14443.164      658.407        50918.896    
    830000   2221.2736     -15535.231     -14387.03      -2876.8555      51212.587    
    831000   2137.4602     -15530.85      -14425.973     -1679.5942      51162.146    
    832000   2157.3341     -15508.155     -14393.005      1928.6149      51129.948    
    833000   2190.572      -15548.372     -14416.04       4741.1953      50834.837    
    834000   2163.7424     -15538.442     -14419.979      2651.361       50939.636    
    835000   2190.48       -15530.879     -14398.595      1103.3296      51108.936    
    836000   2142.5042     -15501.75      -14394.266     -2326.0463      51384.452    
    837000   2127.8517     -15518.517     -14418.607     -6542.9408      51488.659    
    838000   2168.8111     -15527.689     -14406.606     -663.89426      51049.031    
    839000   2160.8062     -15526.745     -14409.799     -1292.8216      51125.191    
    840000   2192.0881     -15500.257     -14367.142      500.73364      51175.307    
    841000   2223.8071     -15518.77      -14369.258      2038.7462      51017.433    
    842000   2166.1563     -15523.831     -14404.12       5163.7861      50886.772    
    843000   2203.8863     -15535.415     -14396.201      1553.6123      51101.934    
    844000   2216.1547     -15464.986     -14319.431      625.35858      51395.013    
    845000   2193.0102     -15458.854     -14325.262     -1796.9629      51492.654    
    846000   2158.9868     -15478.038     -14362.033     -2965.2809      51486.271    
    847000   2235.3743     -15508.684     -14353.194      1242.3253      51129.141    
    848000   2228.1838     -15481.038     -14329.264      403.97751      51323.208    
    849000   2193.4932     -15462.664     -14328.822      2498.3247      51303.941    
    850000   2180.901      -15501.471     -14374.139      5830.3633      50936.212    
    851000   2172.3337     -15472.934     -14350.03       107.16525      51362.731    
    852000   2250.7492     -15423.839     -14260.402     -1765.0446      51675.055    
    853000   2195.0462     -15490.895     -14356.251     -3273.3748      51461.252    
    854000   2214.6027     -15499.01      -14354.257     -2347.2878      51345.655    
[...]
   1287000   3093.3252     -14789.567     -13190.593      6183.9583      54417.998    
   1288000   3076.671      -14718.015     -13127.649     -1257.6719      54996.147    
   1289000   3079.9883     -14762.657     -13170.576     -6334.7961      55040.334    
   1290000   3106.6331     -14819.176     -13213.323     -665.94318      54449.016    
   1291000   3078.0372     -14835.37      -13244.298     -2942.5433      54484.924    
   1292000   3109.2991     -14749.392     -13142.16       3229.9569      54488.635    
   1293000   3030.7666     -14768.632     -13201.994      1610.067       54439.032    
   1294000   3063.7739     -14729.679     -13145.979      879.96161      54677.038    
   1295000   3090.7236     -14765.866     -13168.236     -1948.71        54747.998    
   1296000   3103.436      -14839.917     -13235.716      1528.9815      54291.398    
   1297000   3105.0124     -14778.293     -13173.277      2867.638       54381.332    
   1298000   3036.2909     -14759.431     -13189.937     -2911.1512      54889.102    
   1299000   3009.1614     -14763.015     -13207.545     -460.94731      54680.233    
   1300000   3057.6244     -14747.137     -13166.616      154.23517      54730.314    
   1301000   3101.2159     -14756.256     -13153.203      4750.6447      54431.121    
   1302000   3138.8467     -14716.214     -13093.708      350.07657      54923.286    
   1303000   3095.4522     -14751.867     -13151.792      2918.6804      54490.672    
   1304000   3032.9771     -14769.344     -13201.564      2612.3444      54407.977    
   1305000   3042.5544     -14753.799     -13181.068     -1846.9548      54854.499    
   1306000   3057.6906     -14766.556     -13186.001     -748.65394      54594.97     
   1307000   3171.5577     -14778.341     -13138.927     -771.63141      54748.399    
   1308000   3104.4267     -14783.931     -13179.218      2597.2912      54507.469    
   1309000   3108.1011     -14755.401     -13148.788      7.9704086      54778.45     
   1310000   3057.9414     -14752.326     -13171.641      4902.1116      54347.387    
   1311000   3120.0553     -14764.677     -13151.885      2193.8574      54581.73     
   1312000   3192.4945     -14754.7       -13104.463      131.15704      54745.569    
   1313000   3041.3584     -14783.913     -13211.8       -1594.7188      54500.64     
   1314000   3193.4969     -14736.141     -13085.386     -2645.0479      55037.778    
   1315000   3162.5809     -14744.748     -13109.974      2453.9667      54631.261    
   1316000   3062.269      -14808.978     -13226.056      352.23663      54456.12     
   1317000   3194.0932     -14752.496     -13101.433     -5404.5827      55097.176    
   1318000   3093.4776     -14764.394     -13165.34       767.94413      54620.837    
   1319000   3139.57       -14744.266     -13121.387      3221.9881      54653.409    
   1320000   3125.187      -14766.934     -13151.49       3843.5021      54522.047    
   1321000   3084.9427     -14714.147     -13119.505      599.54456      54979.573    
   1322000   3062.5578     -14754.522     -13171.452      1429.9532      54558.706    
   1323000   3064.4733     -14734.631     -13150.57      -500.0707       54802.29     
   1324000   3171.7511     -14719.385     -13079.871     -1741.5041      55070.393    
   1325000   3187.2929     -14750.808     -13103.26      -2610.2593      54931.552    
   1326000   3155.0459     -14759.488     -13128.609      766.31964      54711.464    
   1327000   3194.8574     -14734.702     -13083.244      4298.9116      54702.842    
   1328000   3173.4212     -14718.954     -13078.576      3130.4283      54642.159    
   1329000   3148.8963     -14752.722     -13125.022      10.72786       54711.342    
   1330000   3185.7824     -14732.481     -13085.714      1792.6077      54622.102    
   1331000   3159.6727     -14763.529     -13130.259      2767.029       54562.278    
   1332000   3158.6435     -14733.563     -13100.825     -2646.1157      54922.751    
   1333000   3119.9702     -14735.964     -13123.216     -3712.6594      54988.05     
   1334000   3036.5792     -14747.342     -13177.7       -1498.5168      54800.617    
   1335000   3186.0719     -14741.941     -13095.024      3230.5639      54593.469    
   1336000   3134.5912     -14730.417     -13110.112     -40.673807      54663.625    
   1337000   3180.7378     -14702.141     -13057.982      299.73833      54883.863    
   1338000   3153.2268     -14720.905     -13090.966     -877.33141      54906.817    
   1339000   3167.1168     -14686.65      -13049.531      3732.627       54841.748    
   1340000   3155.3568     -14744.597     -13113.557      306.41197      54786.159    
   1341000   3195.2269     -14683.428     -13031.779     -2852.3054      55229.907    
   1342000   3282.3628     -14719.474     -13022.784      5152.651       54719.484    
   1343000   3148.5726     -14741.078     -13113.545      2729.2852      54653.822    
   1344000   3159.6676     -14713.891     -13080.623      577.33259      54848.549    
   1345000   3219.3549     -14691.653     -13027.532     -3046.8576      55257.795    
   1346000   3171.7181     -14783.442     -13143.945     -2496.6923      54699.084    
   1347000   3158.9482     -14715.006     -13082.11      -3015.7834      55077.961    
   1348000   3155.136      -14708.219     -13077.294      2953.4224      54722.955    
   1349000   3162.2578     -14706.722     -13072.115      5784.6326      54704.934    
   1350000   3182.4463     -14686.535     -13041.492     -415.18415      55077.235    
   1351000   3198.2566     -14704.071     -13050.856     -7966.362       55379.007    
   1352000   3222.7872     -14716.845     -13050.949      295.60518      55036.976    
   1353000   3275.7285     -14706.155     -13012.893      3348.4933      54885.481    
   1354000   3203.3178     -14659.148     -13003.316     -727.45623      55313.455    
   1355000   3212.5463     -14665.783     -13005.182      694.02094      55053.204    
   1356000   3238.5925     -14691.195     -13017.129     -2912.0028      55265.558    
   1357000   3207.7731     -14678.073     -13019.939     -1554.1233      55209.801    
   1358000   3224.0847     -14693.317     -13026.751      214.0712       54942.331    
   1359000   3201.411      -14660.878     -13006.033     -4378.1318      55627.19     
   1360000   3188.6579     -14716.69      -13068.437      1323.5145      54812.611    
   1361000   3258.4511     -14667.246     -12982.916      2466.9011      55029.469    
   1362000   3255.6884     -14667.012     -12984.11      -2922.983       55399.95     
   1363000   3183.0362     -14670.929     -13025.581     -1925.0062      55144.392    
   1364000   3239.657      -14706.011     -13031.396      5364.8493      54719.947    
   1365000   3217.1453     -14712.631     -13049.653      613.09876      55053.396    
   1366000   3215.8564     -14672.437     -13010.124     -5643.2431      55608.517    
   1367000   3187.4213     -14664.732     -13017.117     -728.01118      55151.654    
   1368000   3260.7907     -14683.432     -12997.892      2439.8238      54835.536    
   1369000   3289.4088     -14671.677     -12971.344      1336.5438      55064.742    
   1370000   3290.2909     -14666.46      -12965.671     -823.462        55338.808    
   1371000   3211.7977     -14649.661     -12989.447     -2687.7055      55367.672    
   1372000   3299.2889     -14643.975     -12938.536     -2363.5652      55461.74     
   1373000   3312.8726     -14691.454     -12978.993      1995.322       54857.758    
   1374000   3221.0673     -14639.695     -12974.689      2063.6008      55224.706    
   1375000   3234.4114     -14635.169     -12963.265      1662.1779      55139.972    
   1376000   3229.1759     -14636.432     -12967.234     -4328.4361      55616.527    
   1377000   3260.5159     -14650.994     -12965.596      2164.5952      55104.761    
   1378000   3234.6604     -14649.866     -12977.834      1985.5223      55210.574    
   1379000   3288.9791     -14632.049     -12931.939      159.44462      55341.252    
   1380000   3230.0034     -14681.12      -13011.495     -899.42236      55185.881    
   1381000   3238.9375     -14662.075     -12987.832     -3024.8238      55363.061    
   1382000   3296.8709     -14617.484     -12913.294     -195.12265      55505.973    
   1383000   3278.355      -14651.233     -12956.614      524.28451      55276.109    
   1384000   3249.1477     -14674.762     -12995.241     -3019.8006      55362.953    
   1385000   3230.5041     -14638.625     -12968.741     -42.15045       55330.69     
   1386000   3294.9098     -14621.489     -12918.313      5552.3958      55005.012    
   1387000   3300.0001     -14640.023     -12934.215     -503.66737      55262.981    
   1388000   3232.1311     -14645.188     -12974.463     -1104.3448      55332.913    
   1389000   3300.2017     -14636.318     -12930.406      2298.6313      55236.213    
   1390000   3252.3683     -14659.658     -12978.472      2475.7012      54987.473    
   1391000   3268.4416     -14636.094     -12946.6       -519.00658      55264.247    
   1392000   3242.1189     -14640.955     -12965.067     -3968.0352      55574.071    
   1393000   3309.898      -14621.42      -12910.496     -4900.1194      55717.088    
   1394000   3320.2866     -14654.4       -12938.107     -162.39082      55308.768    
   1395000   3309.7955     -14666.817     -12955.946      3498.0422      55051.664    
   1396000   3301.5523     -14633.615     -12927.005      3182.0344      55331.34     
   1397000   3237.9669     -14638.995     -12965.253     -2210.2449      55459.082    
   1398000   3233.1787     -14664.343     -12993.076     -2931.7037      55422.055    
   1399000   3329.6484     -14636.327     -12915.194      5034.6184      55085.956    
   1400000   3311.5409     -14643.822     -12932.049      128.93608      55414.121    
   1401000   3304.6667     -14649.692     -12941.473      417.96416      55276.926    
   1402000   3313.0815     -14565.28      -12852.71      -1100.6684      55725.106    
   1403000   3315.9217     -14649.762     -12935.725     -1534.4745      55349.876    
   1404000   3284.6566     -14650.096     -12952.22       1794.722       55118.434    
   1405000   3385.4328     -14668.089     -12918.12       4653.9213      54898.981    
   1406000   3244.6203     -14616.194     -12939.014     -1225.456       55385.084    
   1407000   3393.0785     -14619.078     -12865.158      2074.5802      55340.941    
   1408000   3323.817      -14617.767     -12899.649      3099.4432      55231.056    
   1409000   3244.7458     -14612.089     -12934.843     -3663.3944      55561.432    
   1410000   3278.6049     -14632.61      -12937.862     -1894.3001      55435.541    
   1411000   3369.6745     -14600.994     -12859.171      5.1713016      55443.913    
   1412000   3299.9261     -14620.676     -12914.907     -1213.178       55553.3      
   1413000   3334.2718     -14670.91      -12947.387     -6947.132       55680.814    
   1414000   3250.0946     -14601.259     -12921.249     -3629.9063      55534.67     
   1415000   3334.6326     -14596.286     -12872.577     -154.93225      55581.571    
   1416000   3274.7767     -14629.61      -12936.841      230.63132      55311.073    
   1417000   3359.2525     -14636.925     -12900.489      3492.1418      55173.092    
   1418000   3345.7349     -14570.822     -12841.373      945.24706      55680.265    
   1419000   3410.815      -14618.537     -12855.448      934.08669      55421.924    
   1420000   3243.0834     -14597.61      -12921.223      2130.8287      55310.529    
   1421000   3330.3061     -14605.861     -12884.388     -1703.3674      55537.327    
   1422000   3388.7604     -14577.984     -12826.295     -753.41716      55729.088    
   1423000   3356.8811     -14610.171     -12874.961      256.07758      55406.77     
   1424000   3270.7664     -14547.751     -12857.055     -1210.041       55876.172    
   1425000   3317.2212     -14641.866     -12927.157      1833.8865      55161.858    
   1426000   3293.0249     -14585.211     -12883.009     -3733.0586      55702.037    
   1427000   3401.3034     -14582.084     -12823.911     -2289.8349      55764.351    
   1428000   3320.5901     -14585.701     -12869.25       1136.4529      55602.152    
   1429000   3379.7888     -14591.8       -12844.748      2196.5121      55524.009    
   1430000   3390.5864     -14607.478     -12854.845     -3721.1307      55675.835    
   1431000   3285.1145     -14539.988     -12841.875     -91.049788      55678.883    
   1432000   3370.98       -14622.718     -12880.22       3501.8164      55184.9      
   1433000   3355.211      -14563.761     -12829.414      1832.7899      55556.884    
   1434000   3297.2845     -14550.968     -12846.565     -3125.2969      55873.443    
   1435000   3409.2915     -14592.885     -12830.583      2580.1912      55374.587    
   1436000   3296.8016     -14566.749     -12862.595      1223.8842      55506.199    
   1437000   3375.4806     -14550.396     -12805.572      3575.3333      55525.661    
   1438000   3352.604      -14558.761     -12825.762      1305.0284      55466.186    
   1439000   3424.8553     -14644.41      -12874.063     -721.43124      55389.004    
   1440000   3382.2485     -14581.918     -12833.595     -2841.8456      55785.088    
   1441000   3381.0296     -14603.663     -12855.97       1488.174       55388.353    
   1442000   3331.7348     -14571.941     -12849.73      -1522.2004      55724.647    
   1443000   3313.8884     -14586.406     -12873.42      -3187.2144      55676.896    
   1444000   3388.2127     -14565.884     -12814.478     -1128.9011      55777.917    
   1445000   3302.9289     -14603.226     -12895.904      4020.9155      55247.43     
   1446000   3374.5561     -14567.204     -12822.858     -1133.7492      55791.46     
   1447000   3439.3432     -14548.44      -12770.605      600.20714      55772.605    
   1448000   3476.6012     -14563.57      -12766.476     -3732.9823      55911.773    
   1449000   3412.8768     -14552.271     -12788.117      1185.305       55625.369    
   1450000   3514.8765     -14577.773     -12760.893      1138.0419      55586.626    
   1451000   3397.3835     -14502.47      -12746.324      836.68892      55852.937    
   1452000   3383.4317     -14508.219     -12759.285      1323.535       55915.411    
   1453000   3458.2515     -14571.585     -12783.976     -2203.9307      55787.335    
   1454000   3400.3769     -14517.008     -12759.315      952.84053      55826.322    
   1455000   3375.2034     -14567.062     -12822.381      3684.2585      55480.334    
   1456000   3413.4233     -14529.018     -12764.581     -418.09521      55941.163    
   1457000   3345.9159     -14557.706     -12828.165     -4751.7994      55987.546    
   1458000   3424.925      -14584.729     -12814.347     -369.1321       55545.399    
   1459000   3518.8468     -14567.227     -12748.295     -207.34767      55830.63     
   1460000   3343.0509     -14569.725     -12841.665      2912.3087      55435.119    
   1461000   3474.8805     -14538.485     -12742.28      -2085.5966      55932.852    
   1462000   3345.9995     -14519.319     -12789.734     -1309.6182      55856.224    
   1463000   3495.8144     -14566.678     -12759.652      1815.53        55587.131    
   1464000   3445.2035     -14564.272     -12783.407      840.30214      55564.065    
   1465000   3458.868      -14529.828     -12741.9       -4424.0127      56058.585    
   1466000   3466.5879     -14559.606     -12767.687     -916.04622      55823.318    
   1467000   3429.5356     -14528.769     -12756.003      1396.4987      56010.969    
   1468000   3429.5795     -14510.606     -12737.817     -4181.505       56194.389    
   1469000   3421.176      -14541.092     -12772.647     -259.25074      55775.313    
   1470000   3416.4518     -14480.4       -12714.397      1996.9424      55912.135    
   1471000   3424.6795     -14543.789     -12773.534     -117.11703      55930.482    
   1472000   3418.3262     -14485.613     -12718.641     -350.93612      56125.722    
   1473000   3454.0726     -14539.038     -12753.589      340.98929      55915.399    
   1474000   3371.6767     -14552.409     -12809.551      633.89276      55712.448    
   1475000   3451.0703     -14492.993     -12709.096      964.21461      55977.765    
   1476000   3453.8172     -14518.852     -12733.535     -957.70763      55924.263    
   1477000   3456.2229     -14501.859     -12715.298     -784.19773      56056.043    
   1478000   3498.9975     -14491.497     -12682.826      2353.4171      55935.629    
   1479000   3476.333      -14524.837     -12727.882     -845.56913      56019.889    
   1480000   3493.8791     -14494.956     -12688.931      780.27803      56012.762    
   1481000   3474.0868     -14472.458     -12676.663      305.35675      56163.527    
   1482000   3378.5862     -14547.59      -12801.161     -832.91622      55747.543    
   1483000   3438.9681     -14514.749     -12737.108     -1871.8905      56225.866    
   1484000   3368.3484     -14514.363     -12773.226      445.34845      55999.424    
   1485000   3518.4242     -14491.722     -12673.008     -3638.0716      56338.875    
   1486000   3447.1023     -14499.09      -12717.244      280.09581      56089.829    
   1487000   3433.7742     -14462.268     -12687.311      2122.8858      56047.168    
   1488000   3436.2636     -14560.199     -12783.955     -3674.2149      55929.018    
   1489000   3531.335      -14555.253     -12729.866      2910.8347      55671.276    
   1490000   3444.146      -14587.638     -12807.32       2377.4215      55448.386    
   1491000   3431.7593     -14500.767     -12726.851     -2944.3883      56142.462    
   1492000   3472.1889     -14513.831     -12719.018     -4503.8787      56286.361    
   1493000   3499.9127     -14503.725     -12694.581      1518.0203      56007.803    
   1494000   3434.4167     -14506.593     -12731.304      2223.7511      55799.819    
   1495000   3509.4169     -14463.509     -12649.452     -2857.7383      56408.587    
   1496000   3473.0604     -14508.768     -12713.503      560.38709      55900.898    
   1497000   3481.4383     -14478.416     -12678.821      7492.0338      55654.278    
   1498000   3537.68       -14488.709     -12660.042      2805.9641      55853.483    
   1499000   3514.6176     -14456.838     -12640.092     -1169.1804      56235.091    
   1500000   3461.0515     -14485.524     -12696.467     -990.79678      56172.396    
   1500002   3461.7701     -14486.092     -12696.664     -959.47159      56166.282    
Loop time of 2180.13 on 6 procs for 1500000 steps with 4000 atoms

Performance: 14.861 ns/day, 1.615 hours/ns, 688.032 timesteps/s
99.5% CPU use with 6 MPI tasks x 1 OpenMP threads

MPI task timing breakdown:
Section |  min time  |  avg time  |  max time  |%varavg| %total
---------------------------------------------------------------
Pair    | 1337.8     | 1449       | 1525.7     | 177.2 | 66.46
Neigh   | 0.012673   | 0.013015   | 0.013491   |   0.3 |  0.00
Comm    | 123.63     | 125        | 126.61     |   8.5 |  5.73
Output  | 3.0855     | 3.1668     | 3.2313     |   3.0 |  0.15
Modify  | 503.12     | 579.57     | 690.83     | 280.0 | 26.58
Other   |            | 23.36      |            |       |  1.07

Nlocal:        666.667 ave         676 max         657 min
Histogram: 1 0 1 1 0 1 0 0 1 1
Nghost:        3428.83 ave        3439 max        3424 min
Histogram: 3 0 1 0 0 0 1 0 0 1
Neighs:              0 ave           0 max           0 min
Histogram: 6 0 0 0 0 0 0 0 0 0

Total # of neighbors = -6
Ave neighs/atom = -0.0015
Neighbor list builds = 7285
Dangerous builds = 0

write_restart checkpoint.init
System init for write_restart ...
write_data checkpoint.data
System init for write_data ...
Total wall time: 0:36:21
