LAMMPS (29 Sep 2021)
  using 1 OpenMP thread(s) per MPI task
Reading data file ...
  orthogonal box = (0.60786045 0.61968883 0.0000000) to (100.63922 100.62740 541.67200)
  3 by 2 by 16 MPI processor grid
  reading atoms ...
  437300 atoms
  reading velocities ...
  437300 velocities
  read_data CPU = 4.509 seconds
218650 atoms in group g_left
218650 atoms in group g_right

CITE-CITE-CITE-CITE-CITE-CITE-CITE-CITE-CITE-CITE-CITE-CITE-CITE

Your simulation uses code contributions which should be cited:
- @article{cjiang2012
The log file lists these citations in BibTeX format.

CITE-CITE-CITE-CITE-CITE-CITE-CITE-CITE-CITE-CITE-CITE-CITE-CITE

Neighbor list info ...
  update every 1 steps, delay 10 steps, check yes
  max neighbors/atom: 2000, page size: 100000
  master list distance cutoff = 8.28721
  ghost atom cutoff = 8.28721
  binsize = 4.143605, bins = 25 25 131
  3 neighbor lists, perpetual/occasional/extra = 3 0 0
  (1) pair eam/alloy, perpetual, skip from (3)
      attributes: half, newton on
      pair build: skip
      stencil: none
      bin: none
  (2) pair edip/multi, perpetual
      attributes: full, newton on
      pair build: full/bin/atomonly
      stencil: full/bin/3d
      bin: standard
  (3) neighbor class addition, perpetual, half/full from (2)
      attributes: half, newton on
      pair build: halffull/newton
      stencil: none
      bin: none
Setting up Verlet run ...
  Unit style    : metal
  Current step  : 0
  Time step     : 0.00025
Per MPI rank memory allocation (min/avg/max) = 10.07 | 12.34 | 14.51 Mbytes
Step Time Temp Press PotEng KinEng TotEng Volume 
       0            0    2199.8212    21127.338   -2025958.9    124345.62   -1901613.3    5418836.5 
     100        0.025    2200.0908     21375.18   -2025992.2    124360.86   -1901631.3    5413834.5 
     200         0.05    2200.0782     21121.33   -2025992.1    124360.15     -1901632    5408832.6 
     300        0.075      2199.78    21110.807   -2025967.4    124343.29   -1901624.1    5403830.6 
     400          0.1    2199.4041    21297.319   -2025950.2    124322.05   -1901628.1    5398828.6 
     500        0.125    2199.7659    21150.855   -2025983.7     124342.5   -1901641.2    5393826.7 
     600         0.15    2199.5749    21146.467   -2025977.8     124331.7   -1901646.1    5388824.7 
     700        0.175    2199.4996    20913.988   -2025967.8    124327.45   -1901640.4    5383822.8 
     800          0.2    2199.7674    21181.444   -2025980.6    124342.58     -1901638    5378820.8 
     900        0.225    2199.3883    20985.781   -2025965.9    124321.15   -1901644.7    5373818.9 
    1000         0.25    2199.4952    21160.303   -2025976.3     124327.2   -1901649.1    5368816.9 
    1100        0.275    2199.3919    21427.438   -2025968.1    124321.36   -1901646.8      5363815 
    1200          0.3    2200.1102    21399.231   -2026012.2    124361.96   -1901650.3      5358813 
    1300        0.325    2199.1417    21070.207   -2025970.8    124307.22   -1901663.6    5353811.1 
    1400         0.35    2198.9591    21424.949   -2025968.6    124296.89   -1901671.7    5348809.1 
    1500        0.375    2199.2811    21481.889     -2025981    124315.09   -1901665.9    5343807.2 
    1600          0.4    2199.0034    21385.602   -2025957.2     124299.4   -1901657.8    5338805.2 
    1700        0.425    2199.6961    21473.755   -2025996.5    124338.55     -1901658    5333803.3 
    1800         0.45    2199.0235    21408.525   -2025957.4    124300.53   -1901656.9    5328801.3 
    1900        0.475    2199.9969    21409.759   -2026002.9    124355.56   -1901647.3    5323799.3 
    2000          0.5    2199.8232    21700.922     -2025985    124345.74   -1901639.3    5318797.4 
    2100        0.525    2199.8431    21637.689   -2025983.4    124346.86   -1901636.6    5313795.4 
    2200         0.55    2199.5502      21054.2   -2025962.2    124330.31   -1901631.9    5308793.5 
    2300        0.575     2199.822    21594.283   -2025968.1    124345.67   -1901622.4    5303791.5 
    2400          0.6    2200.1648    21376.575   -2025977.9    124365.05   -1901612.9    5298789.6 
    2500        0.625    2200.2865    21336.146     -2025979    124371.92   -1901607.1    5293787.6 
    2600         0.65     2200.426    21412.558     -2025981    124379.81   -1901601.2    5288785.7 
    2700        0.675    2200.4001    21776.411   -2025967.9    124378.34   -1901589.6    5283783.7 
    2800          0.7    2200.7198    21547.698   -2025974.1    124396.42   -1901577.7    5278781.8 
    2900        0.725    2200.6356    21930.821   -2025969.5    124391.66   -1901577.8    5273779.8 
    3000         0.75     2200.752     21841.94   -2025986.2    124398.24   -1901587.9    5268777.9 
    3100        0.775    2200.4607    21907.927   -2025977.4    124381.77   -1901595.6    5263775.9 
    3200          0.8    2200.4413    21791.782   -2025974.3    124380.67   -1901593.7    5258773.9 
    3300        0.825     2200.485    22032.748   -2025971.6    124383.15   -1901588.5      5253772 
    3400         0.85    2201.0254    22254.058   -2026000.1    124413.69   -1901586.4      5248770 
    3500        0.875    2200.2302    21877.742   -2025952.1    124368.74   -1901583.3    5243768.1 
    3600          0.9    2200.9598    22118.923   -2025991.3    124409.98   -1901581.4    5238766.1 
    3700        0.925    2200.4834    21869.167   -2025969.1    124383.06   -1901586.1    5233764.2 
    3800         0.95    2200.4367    21883.354   -2025972.2    124380.42   -1901591.7    5228762.2 
    3900        0.975    2200.3086    21356.403   -2025963.1    124373.17   -1901589.9    5223760.3 
    4000            1    2200.8837    21680.061   -2025984.7    124405.68     -1901579    5218758.3 
    4100        1.025    2200.5395    22064.787   -2025955.6    124386.23   -1901569.4    5213756.4 
    4200         1.05    2200.4133    21925.054   -2025952.4    124379.09   -1901573.3    5208754.4 
    4300        1.075    2200.2739     21893.64   -2025953.4    124371.22   -1901582.2    5203752.5 
    4400          1.1    2201.2974    22172.772   -2026010.5    124429.06   -1901581.4    5198750.5 
    4500        1.125    2200.9058    21917.462     -2025981    124406.93   -1901574.1    5193748.5 
    4600         1.15    2200.7603    21806.749   -2025967.5    124398.71   -1901568.8    5188746.6 
    4700        1.175    2201.2349    22244.049   -2025990.1    124425.53   -1901564.6    5183744.6 
    4800          1.2    2201.7457    22065.615   -2026009.3     124454.4   -1901554.9    5178742.7 
    4900        1.225    2202.4645    22032.608   -2026040.9    124495.04   -1901545.8    5173740.7 
    5000         1.25    2202.8247    22401.867   -2026061.7     124515.4   -1901546.3    5168738.8 
    5100        1.275    2204.2152    22659.329   -2026153.6       124594   -1901559.6    5163736.8 
    5200          1.3    2203.6702     24009.58   -2026135.2    124563.19     -1901572    5158734.9 
    5300        1.325    2201.0147    27413.838   -2025981.9    124413.09   -1901568.8    5153732.9 
    5400         1.35    2191.5274    33400.724   -2025439.8    123876.81     -1901563      5148731 
    5500        1.375    2174.3221     41474.33   -2024470.2    122904.28   -1901565.9      5143729 
    5600          1.4    2149.7074    52751.613   -2023087.6    121512.93   -1901574.7    5138727.1 
    5700        1.425    2121.3378    64705.481   -2021486.5    119909.32   -1901577.2    5133725.1 
    5800         1.45    2093.0881    75214.735   -2019883.5     118312.5     -1901571    5128723.2 
    5900        1.475     2065.194    84193.228     -2018304    116735.78   -1901568.2    5123721.2 
    6000          1.5    2040.7899    91878.053   -2016923.3    115356.33     -1901567    5118719.2 
    6100        1.525    2020.6772    96468.103   -2015782.6    114219.45   -1901563.1    5113717.3 
    6200         1.55    2009.1684    97088.643   -2015130.6    113568.91   -1901561.7    5108715.3 
    6300        1.575    2004.1209    94835.704     -2014854     113283.6   -1901570.4    5103713.4 
    6400          1.6    2003.8459    90998.573   -2014851.3    113268.06   -1901583.2    5098711.4 
    6500        1.625    2007.8363    86707.736   -2015079.6    113493.62     -1901586    5093709.5 
    6600         1.65    2012.0595    83361.798   -2015310.8    113732.33   -1901578.5    5088707.5 
    6700        1.675    2016.3801    77893.768   -2015551.3    113976.56   -1901574.8    5083705.6 
    6800          1.7    2017.1025    73702.377   -2015593.9    114017.39   -1901576.5    5078703.6 
    6900        1.725     2017.942    69832.459     -2015633    114064.84   -1901568.2    5073701.7 
    7000         1.75    2017.0586    65092.935   -2015559.1    114014.91   -1901544.2    5068699.7 
    7100        1.775    2012.9992    62021.109   -2015311.5    113785.45   -1901526.1    5063697.8 
    7200          1.8    2007.7659    58813.448   -2015022.4    113489.64   -1901532.8    5058695.8 
    7300        1.825    2001.3714    56465.797   -2014677.4    113128.18   -1901549.2    5053693.8 
    7400         1.85    1992.5749    53765.048   -2014186.3    112630.96   -1901555.4    5048691.9 
    7500        1.875    1984.0151    51304.812   -2013697.8    112147.11   -1901550.7    5043689.9 
    7600          1.9    1975.8755    50842.683   -2013235.2    111687.02   -1901548.2      5038688 
    7700        1.925     1966.091    49857.129   -2012684.9    111133.95     -1901551      5033686 
    7800         1.95    1957.0395    49189.429   -2012167.7    110622.31   -1901545.4    5028684.1 
    7900        1.975    1946.0318    49686.579   -2011531.9    110000.09   -1901531.8    5023682.1 
    8000            2    1933.1526    50448.039   -2010799.2    109272.09   -1901527.1    5018680.2 
    8100        2.025    1919.1653    52289.529   -2010018.8    108481.46   -1901537.3    5013678.2 
    8200         2.05    1904.5795    53352.847   -2009208.6    107656.99   -1901551.6    5008676.3 
    8300        2.075     1891.231    55657.793   -2008464.7    106902.46   -1901562.2    5003674.3 
    8400          2.1    1877.3531    57621.516     -2007688    106118.01     -1901570    4998672.4 
    8500        2.125    1868.1461    60070.473   -2007177.7    105597.58   -1901580.1    4993670.4 
    8600         2.15     1858.284    62572.867   -2006629.2    105040.12   -1901589.1    4988668.5 
    8700        2.175    1851.5053    65176.725   -2006250.3    104656.95   -1901593.4    4983666.5 
    8800          2.2    1845.2679    68026.942   -2005900.9    104304.38   -1901596.5    4978664.5 
    8900        2.225    1838.5276    70564.482   -2005518.8    103923.38   -1901595.5    4973662.6 
    9000         2.25     1833.084    74459.301   -2005206.2    103615.68   -1901590.5    4968660.6 
    9100        2.275    1828.1544    78522.025   -2004924.8    103337.03   -1901587.7    4963658.7 
    9200          2.3    1820.9892    82917.398   -2004524.3    102932.02   -1901592.2    4958656.7 
    9300        2.325    1814.2497    87277.393   -2004152.8    102551.07   -1901601.7    4953654.8 
    9400         2.35    1806.4609    91806.961     -2003717     102110.8   -1901606.2    4948652.8 
    9500        2.375    1798.9647    96178.124   -2003292.5    101687.08   -1901605.4    4943650.9 
    9600          2.4     1790.213    101803.81   -2002799.7    101192.38   -1901607.3    4938648.9 
    9700        2.425    1779.9661    106350.56   -2002230.2    100613.18     -1901617      4933647 
    9800         2.45     1769.556    110322.19   -2001650.5    100024.74   -1901625.8      4928645 
    9900        2.475    1759.2438    115002.56   -2001066.6    99441.839   -1901624.7    4923643.1 
   10000          2.5    1748.1694    119282.25   -2000430.8    98815.857     -1901615    4918641.1 
   10100        2.525    1735.5573    123198.31   -1999708.9    98102.955     -1901606    4913639.1 
   10200         2.55    1724.6328    128091.06   -1999086.4    97485.442   -1901600.9    4908637.2 
   10300        2.575    1712.4533    130826.48     -1998395    96796.993     -1901598    4903635.2 
   10400          2.6    1700.3919    133571.48   -1997714.9    96115.218   -1901599.7    4898633.3 
   10500        2.625    1688.9655    135425.27   -1997070.1    95469.334   -1901600.8    4893631.3 
   10600         2.65    1678.8699    137959.48   -1996493.5    94898.681   -1901594.8    4888629.4 
   10700        2.675    1667.4542    139480.16   -1995834.2    94253.403   -1901580.8    4883627.4 
   10800          2.7    1656.3803     140582.5   -1995202.5    93627.446   -1901575.1    4878625.5 
   10900        2.725    1646.6951    140991.96   -1994662.9     93079.99   -1901582.9    4873623.5 
   11000         2.75    1635.6086    141665.99   -1994043.9    92453.317   -1901590.5    4868621.6 
   11100        2.775    1626.0997    142037.84   -1993507.1    91915.826   -1901591.3    4863619.6 
   11200          2.8    1615.5079    142031.37   -1992907.5    91317.123   -1901590.3    4858617.7 
   11300        2.825    1603.1267    141795.17     -1992212    90617.271   -1901594.8    4853615.7 
   11400         2.85     1591.541    142830.05   -1991561.7    89962.385   -1901599.4    4848613.7 
   11500        2.875    1580.6291    142299.32   -1990942.2    89345.583   -1901596.6    4843611.8 
   11600          2.9    1568.3587    142873.11   -1990247.8    88651.997   -1901595.8    4838609.8 
   11700        2.925    1556.2979    143790.14   -1989576.8    87970.254   -1901606.6    4833607.9 
   11800         2.95    1544.6553    144320.53   -1988930.2    87312.152   -1901618.1    4828605.9 
   11900        2.975    1532.7236    145325.63   -1988254.9    86637.711   -1901617.2      4823604 
   12000            3    1520.2784    146570.67   -1987542.4     85934.24   -1901608.2      4818602 
   12100        3.025    1510.8369    148334.94   -1987007.3    85400.559   -1901606.7    4813600.1 
   12200         3.05    1503.3549     150040.3   -1986588.4    84977.634   -1901610.8    4808598.1 
   12300        3.075    1497.8092    150162.95   -1986274.2    84664.164     -1901610    4803596.2 
   12400          3.1    1493.4033    151981.87   -1986020.4    84415.118   -1901605.3    4798594.2 
   12500        3.125    1488.6178    153833.28   -1985748.1    84144.615   -1901603.5    4793592.3 
   12600         3.15    1485.4694    155425.95   -1985575.8    83966.649   -1901609.1    4788590.3 
   12700        3.175    1478.8023    157077.14   -1985206.4    83589.793   -1901616.6    4783588.4 
   12800          3.2    1474.6599    158390.89   -1984972.3    83355.639   -1901616.6    4778586.4 
   12900        3.225    1468.0273    160680.66   -1984593.8    82980.732   -1901613.1    4773584.4 
   13000         3.25    1461.3753    163008.83   -1984217.8    82604.726   -1901613.1    4768582.5 
   13100        3.275    1452.9492    164960.05   -1983746.4    82128.437     -1901618    4763580.5 
   13200          3.3    1446.6924    167421.63   -1983400.4    81774.771   -1901625.6    4758578.6 
   13300        3.325    1438.8554    169957.39   -1982965.2    81331.781   -1901633.4    4753576.6 
   13400         3.35    1429.3368    172557.07   -1982432.3    80793.738   -1901638.5    4748574.7 
   13500        3.375    1421.2449     175075.5     -1981980    80336.342   -1901643.7    4743572.7 
   13600          3.4    1414.5501    176959.59   -1981608.9    79957.917     -1901651    4738570.8 
   13700        3.425    1405.9672    178676.42   -1981135.5    79472.765   -1901662.7    4733568.8 
   13800         3.45    1397.3858    181049.77   -1980658.4    78987.695   -1901670.7    4728566.9 
   13900        3.475    1391.9651    184379.66   -1980346.9    78681.292   -1901665.6    4723564.9 
   14000          3.5    1385.6385    184616.87   -1979979.5    78323.676   -1901655.8      4718563 
   14100        3.525    1378.7411    188002.24   -1979590.6    77933.801   -1901656.8      4713561 
   14200         3.55    1371.4513    188266.53   -1979190.6    77521.738   -1901668.9      4708559 
   14300        3.575    1365.3607    190371.79   -1978853.3    77177.468   -1901675.8    4703557.1 
   14400          3.6     1357.598    192058.44   -1978412.3    76738.679   -1901673.6    4698555.1 
   14500        3.625    1349.9408    192563.98     -1977979    76305.851   -1901673.1    4693553.2 
   14600         3.65    1342.6286     194436.9   -1977572.6     75892.53   -1901680.1    4688551.2 
   14700        3.675    1334.9801    195956.62   -1977143.9    75460.194   -1901683.7    4683549.3 
   14800          3.7    1329.2455    196292.99   -1976815.7    75136.043   -1901679.6    4678547.3 
   14900        3.725    1322.9329    198266.94   -1976459.8    74779.224   -1901680.6    4673545.4 
   15000         3.75    1314.3725    199407.71   -1975988.1    74295.341   -1901692.8    4668543.4 
   15100        3.775    1307.0845    199436.35   -1975582.5    73883.385   -1901699.1    4663541.5 
   15200          3.8    1298.6785    201389.27   -1975094.8    73408.232   -1901686.5    4658539.5 
   15300        3.825    1291.4074    204130.92   -1974667.5    72997.232   -1901670.3    4653537.6 
   15400         3.85    1281.9703    205492.47   -1974132.6    72463.799   -1901668.8    4648535.6 
   15500        3.875     1272.962       206903   -1973635.6    71954.598     -1901681    4643533.6 
   15600          3.9    1264.3534    209560.76   -1973155.8    71467.995   -1901687.8    4638531.7 
   15700        3.925    1254.0101    210620.49   -1972564.6    70883.335   -1901681.2    4633529.7 
   15800         3.95    1243.3221    212339.96   -1971955.6    70279.192   -1901676.4    4628527.8 
   15900        3.975    1234.2287    215537.89   -1971443.7    69765.186   -1901678.6    4623525.8 
   16000            4    1225.4389    216614.86   -1970943.4    69268.343     -1901675    4618523.9 
   16100        4.025    1214.9177    219381.78   -1970339.8    68673.625   -1901666.1    4613521.9 
   16200         4.05    1205.3896    221565.76   -1969796.3     68135.05   -1901661.2      4608520 
   16300        4.075    1195.8281    222909.36   -1969258.4    67594.578   -1901663.8      4603518 
   16400          4.1    1188.0619    225375.02   -1968821.4    67155.591   -1901665.8    4598516.1 
   16500        4.125    1178.7629    227736.29   -1968290.5    66629.964   -1901660.6    4593514.1 
   16600         4.15    1170.8357    230153.24   -1967835.6    66181.874   -1901653.8    4588512.2 
   16700        4.175    1160.8154    232550.48   -1967266.6    65615.476   -1901651.1    4583510.2 
   16800          4.2    1152.8407    233976.52   -1966812.5    65164.702   -1901647.8    4578508.3 
   16900        4.225    1142.1686    236619.19   -1966201.2    64561.458   -1901639.7    4573506.3 
   17000         4.25    1133.5615    237878.04   -1965707.6    64074.942   -1901632.7    4568504.3 
   17100        4.275    1123.0973    240835.25   -1965115.4     63483.45     -1901632    4563502.4 
   17200          4.3    1112.3736    241702.16   -1964510.2    62877.287   -1901632.9    4558500.4 
   17300        4.325    1100.8421    243286.03   -1963856.8    62225.465   -1901631.4    4553498.5 
   17400         4.35    1088.6366    244822.49   -1963164.1    61535.543   -1901628.6    4548496.5 
   17500        4.375    1075.9158    247100.35   -1962441.7    60816.496   -1901625.2    4543494.6 
   17600          4.4    1064.6639    247366.62   -1961801.8    60180.479   -1901621.4    4538492.6 
   17700        4.425    1051.1246    247930.84   -1961034.2    59415.168     -1901619    4533490.7 
   17800         4.45    1038.3478    249698.65   -1960317.3    58692.953   -1901624.4    4528488.7 
   17900        4.475    1026.2075    249001.63   -1959644.2    58006.717   -1901637.5    4523486.8 
   18000          4.5    1013.9186    251300.94     -1958957    57312.088   -1901644.9    4518484.8 
   18100        4.525    1001.4327    251340.18   -1958247.3    56606.315     -1901641    4513482.9 
   18200         4.55    992.18485    251898.55   -1957716.1    56083.578   -1901632.5    4508480.9 
   18300        4.575    980.64918     251454.1     -1957058    55431.521   -1901626.5    4503478.9 
   18400          4.6    971.14317    252487.44     -1956516     54894.19   -1901621.8      4498477 
   18500        4.625     960.1269    252157.26   -1955881.8    54271.492   -1901610.3      4493475 
   18600         4.65    951.31241    253047.85   -1955368.6     53773.25   -1901595.4    4488473.1 
   18700        4.675    940.04301    253729.76   -1954723.4    53136.244   -1901587.1    4483471.1 
   18800          4.7     930.3981    253486.88   -1954175.6    52591.062   -1901584.5    4478469.2 
   18900        4.725    919.63116    255612.88   -1953566.1    51982.457   -1901583.7    4473467.2 
   19000         4.75    910.24137    257126.41   -1953035.2    51451.696   -1901583.5    4468465.3 
   19100        4.775    899.14155    258254.62   -1952406.3    50824.275     -1901582    4463463.3 
   19200          4.8    888.59738    260737.81   -1951811.9    50228.262   -1901583.7    4458461.4 
   19300        4.825      878.267    262301.56   -1951230.7    49644.334   -1901586.4    4453459.4 
   19400         4.85    869.33481    263573.86   -1950729.7    49139.439   -1901590.3    4448457.5 
   19500        4.875    859.77763    266275.54   -1950198.1    48599.216   -1901598.9    4443455.5 
   19600          4.9    851.74613    269171.47   -1949756.3    48145.233   -1901611.1    4438453.6 
   19700        4.925    843.48073    271442.16   -1949297.4    47678.028   -1901619.3    4433451.6 
   19800         4.95    835.71573    273201.34   -1948853.5    47239.109   -1901614.4    4428449.6 
   19900        4.975    829.37107    276834.36   -1948480.7    46880.475   -1901600.2    4423447.7 
   20000            5    823.13657    280520.73   -1948121.9    46528.068   -1901593.8    4418445.7 
   20100        5.025    817.03631    282702.62   -1947783.6    46183.249   -1901600.3    4413443.8 
   20200         5.05    809.52247    285973.36   -1947366.9    45758.527   -1901608.3    4408441.8 
   20300        5.075     803.0309    287902.69   -1947001.8    45391.588   -1901610.2    4403439.9 
   20400          5.1    797.55606    291407.88   -1946687.9    45082.121   -1901605.8    4398437.9 
   20500        5.125    789.96381    294355.45   -1946255.4    44652.966   -1901602.5      4393436 
   20600         5.15    783.70813    297444.45   -1945901.4    44299.362     -1901602      4388434 
   20700        5.175    776.32563    301144.46   -1945479.5    43882.064   -1901597.4    4383432.1 
   20800          5.2     770.9688    302090.58   -1945172.3    43579.267     -1901593    4378430.1 
   20900        5.225    763.95099    304828.25   -1944777.4    43182.583   -1901594.8    4373428.2 
   21000         5.25    757.70047    307905.83   -1944428.2    42829.271   -1901598.9    4368426.2 
   21100        5.275     751.2069    310652.86   -1944059.4     42462.22   -1901597.2    4363424.2 
   21200          5.3    745.88523    312066.72   -1943746.6     42161.41   -1901585.2    4358422.3 
   21300        5.325    739.52517    314449.21   -1943366.7    41801.906   -1901564.8    4353420.3 
   21400         5.35    735.38772    315630.83   -1943097.7    41568.035   -1901529.6    4348418.4 
   21500        5.375     730.1755    318482.95   -1942736.6    41273.413   -1901463.2    4343416.4 
   21600          5.4    725.48317    320685.99   -1942344.3    41008.177   -1901336.1    4338414.5 
   21700        5.425    723.58755    320629.54   -1942002.3    40901.026   -1901101.3    4333412.5 
   21800         5.45    722.51331    324695.85   -1941545.2    40840.305   -1900704.9    4328410.6 
   21900        5.475    724.21466     325715.6   -1941030.2    40936.474   -1900093.7    4323408.6 
   22000          5.5    728.25716    327274.28   -1940409.2    41164.978   -1899244.3    4318406.7 
   22100        5.525    735.15042    328188.88   -1939765.6    41554.622     -1898211    4313404.7 
   22200         5.55    742.71292    329849.46   -1939091.3    41982.095   -1897109.2    4308402.8 
   22300        5.575    751.05886    332381.84   -1938488.3    42453.852   -1896034.5    4303400.8 
   22400          5.6    757.67182    333202.36   -1937817.1    42827.651   -1894989.4    4298398.8 
   22500        5.625    763.35349     335392.9   -1937062.4    43148.809   -1893913.6    4293396.9 
   22600         5.65    771.37262    335943.66   -1936364.3    43602.094   -1892762.2    4288394.9 
   22700        5.675    780.28224    337549.82   -1935665.1    44105.713   -1891559.4      4283393 
   22800          5.7    788.04308    339847.48   -1934905.3    44544.397   -1890360.9      4278391 
   22900        5.725    795.84569    341690.32   -1934168.6    44985.442   -1889183.2    4273389.1 
   23000         5.75    801.97407    343634.93     -1933337    45331.851   -1888005.1    4268387.1 
   23100        5.775    807.77733    345457.81   -1932463.5    45659.882   -1886803.6    4263385.2 
   23200          5.8    812.61267    347954.82   -1931529.4    45933.201   -1885596.2    4258383.2 
   23300        5.825    816.35009    350974.41   -1930558.4     46144.46   -1884413.9    4253381.3 
   23400         5.85     818.4613    354388.74   -1929526.2    46263.797   -1883262.4    4248379.3 
   23500        5.875    819.82348    357647.24   -1928457.4    46340.794   -1882116.6    4243377.4 
   23600          5.9    818.19837    360753.62   -1927199.1    46248.935   -1880950.2    4238375.4 
   23700        5.925    816.66257    365442.85   -1925929.3    46162.123   -1879767.1    4233373.5 
   23800         5.95    815.25259    369717.11   -1924665.6    46082.423   -1878583.2    4228371.5 
   23900        5.975    811.20543    373462.79   -1923253.1    45853.657   -1877399.4    4223369.5 
   24000            6    809.02822    378502.06   -1921936.1    45730.589   -1876205.5    4218367.6 
   24100        6.025    806.11689    382419.08   -1920567.6    45566.025   -1875001.5    4213365.6 
   24200         6.05    803.46387    386606.91   -1919199.8    45416.062   -1873783.8    4208363.7 
   24300        6.075    800.95561    390566.14     -1917812    45274.282   -1872537.7    4203361.7 
   24400          6.1    795.85555    396283.49   -1916229.6    44985.999   -1871243.6    4198359.8 
   24500        6.125    793.78235    400419.89   -1914733.9    44868.811   -1869865.1    4193357.8 
   24600         6.15    791.86813     405046.2   -1913088.3    44760.609   -1868327.7    4188355.9 
   24700        6.175    793.65899    409510.18     -1911395    44861.838   -1866533.1    4183353.9 
   24800          6.2    799.88625    414311.58   -1909635.4    45213.836   -1864421.6      4178352 
   24900        6.225    807.28639     419037.2     -1907628    45632.131   -1861995.9      4173350 
   25000         6.25    819.53414    424595.24     -1905690     46324.44   -1859365.5    4168348.1 
   25100        6.275    830.91875    430010.22   -1903661.8    46967.959   -1856693.8    4163346.1 
   25200          6.3    844.35173    434535.92   -1901813.7    47727.262   -1854086.4    4158344.1 
   25300        6.325    852.53336    439190.48   -1899750.1    48189.731   -1851560.3    4153342.2 
   25400         6.35    859.52984    444184.86   -1897671.7     48585.21   -1849086.5    4148340.2 
   25500        6.375     867.0173    447314.48   -1895660.2    49008.441   -1846651.7    4143338.3 
   25600          6.4    869.42554    453920.21   -1893425.5    49144.567     -1844281    4138336.3 
   25700        6.425    869.95849    458784.18   -1891163.4    49174.692   -1841988.7    4133334.4 
   25800         6.45     870.3266     463544.5   -1888922.2      49195.5   -1839726.7    4128332.4 
   25900        6.475    868.70309    466905.88   -1886506.4     49103.73   -1837402.7    4123330.5 
   26000          6.5    868.92302    473576.64   -1884072.9    49116.163   -1834956.8    4118328.5 
   26100        6.525    872.22575    477776.52   -1881706.7     49302.85   -1832403.9    4113326.6 
   26200         6.55     879.4896    482734.27   -1879483.4    49713.442   -1829769.9    4108324.6 
   26300        6.575    887.28362    486864.78   -1877197.1    50154.001   -1827043.1    4103322.7 
   26400          6.6    896.99725    490604.24   -1874890.2    50703.067   -1824187.1    4098320.7 
   26500        6.625    908.34882    496289.02   -1872533.3    51344.719   -1821188.6    4093318.7 
   26600         6.65    923.21053    501446.37   -1870250.2    52184.782   -1818065.5    4088316.8 
   26700        6.675    940.60565    504998.12   -1867984.2    53168.047   -1814816.2    4083314.8 
   26800          6.7    961.38531    510244.16   -1865751.6    54342.624     -1811409    4078312.9 
   26900        6.725    985.77951    516941.84     -1863536    55721.514   -1807814.5    4073310.9 
   27000         6.75    1014.4084    522785.14   -1861439.6    57339.773   -1804099.8      4068309 
   27100        6.775    1042.1242    527685.51   -1859366.3    58906.415   -1800459.8      4063307 
   27200          6.8    1066.9985    532912.48   -1857365.5    60312.447   -1797053.1    4058305.1 
   27300        6.825    1090.6677    539366.68   -1855502.8    61650.356   -1793852.5    4053303.1 
   27400         6.85    1109.9162    544157.63   -1853439.8    62738.384   -1790701.4    4048301.2 
   27500        6.875    1134.6613    549470.94   -1851599.9    64137.109   -1787462.8    4043299.2 
   27600          6.9    1161.7287    554514.57   -1849788.9      65667.1   -1784121.8    4038297.3 
   27700        6.925    1189.1785    560220.54   -1847930.1    67218.712   -1780711.4    4033295.3 
   27800         6.95    1220.5899    564900.48   -1846220.6    68994.251   -1777226.3    4028293.4 
   27900        6.975    1252.3316    569741.93   -1844458.4    70788.458   -1773669.9    4023291.4 
   28000            7    1287.6574    575014.97   -1842887.7    72785.261   -1770102.4    4018289.4 
   28100        7.025    1321.3547    579904.52   -1841259.5    74690.013   -1766569.5    4013287.5 
   28200         7.05    1355.5702    583781.91   -1839658.4    76624.057   -1763034.4    4008285.5 
   28300        7.075    1390.6969    588498.99   -1838040.9    78609.607   -1759431.3    4003283.6 
   28400          7.1    1430.1585    592403.22     -1836613    80840.183   -1755772.8    3998281.6 
   28500        7.125    1471.2706    596016.99   -1835300.4     83164.06   -1752136.4    3993279.7 
   28600         7.15    1507.7329    600666.89     -1833786    85225.104   -1748560.9    3988277.7 
   28700        7.175    1545.3898    602632.99   -1832369.5    87353.674   -1745015.9    3983275.8 
   28800          7.2    1583.4792    605209.34     -1831006    89506.688   -1741499.3    3978273.8 
   28900        7.225    1622.4952    609247.46   -1829796.3    91712.081   -1738084.2    3973271.9 
   29000         7.25    1659.0573     612560.9   -1828600.4    93778.766   -1734821.6    3968269.9 
   29100        7.275    1693.2471     613772.4   -1827367.9    95711.357   -1731656.6      3963268 
   29200          7.3    1726.7948    616877.52   -1826100.3    97607.647   -1728492.7      3958266 
   29300        7.325    1761.5767     619159.5   -1824860.3    99573.707   -1725286.6      3953264 
   29400         7.35    1796.0854    623153.53   -1823580.8    101524.32   -1722056.5    3948262.1 
   29500        7.375    1831.8744    624034.46   -1822396.7    103547.31   -1718849.4    3943260.1 
   29600          7.4    1861.9936    628605.04   -1820944.9    105249.81   -1715695.1    3938258.2 
   29700        7.425    1893.5832    631643.83   -1819620.7    107035.42   -1712585.3    3933256.2 
   29800         7.45    1921.1269    635772.14   -1818098.4    108592.33   -1709506.1    3928254.3 
   29900        7.475    1946.5707    639916.36   -1816481.2    110030.55   -1706450.7    3923252.3 
   30000          7.5     1971.547    645025.09   -1814867.3    111442.35   -1703424.9    3918250.4 
   30100        7.525     1993.148     647666.8   -1813100.4    112663.35     -1700437    3913248.4 
   30200         7.55    2013.9139    653544.42   -1811314.6    113837.15   -1697477.5    3908246.5 
   30300        7.575    2030.9395    659680.16   -1809311.6    114799.53   -1694512.1    3903244.5 
   30400          7.6    2050.2577    664398.36   -1807411.3     115891.5   -1691519.8    3898242.6 
   30500        7.625    2064.6733    669958.78   -1805245.2    116706.35   -1688538.9    3893240.6 
   30600         7.65    2079.4462    675373.77   -1803187.5    117541.38   -1685646.1    3888238.6 
   30700        7.675    2089.0617    681160.67     -1800938    118084.91   -1682853.1    3883236.7 
   30800          7.7    2098.3406    686792.96   -1798705.3     118609.4   -1680095.9    3878234.7 
   30900        7.725    2107.4191    693286.48   -1796438.8    119122.56   -1677316.2    3873232.8 
   31000         7.75    2115.2507    699039.91   -1794082.1    119565.25   -1674516.9    3868230.8 
   31100        7.775    2122.9049    706348.38   -1791710.4     119997.9   -1671712.5    3863228.9 
   31200          7.8    2130.2086    713425.55   -1789294.6    120410.75   -1668883.8    3858226.9 
   31300        7.825    2138.5339     719990.2     -1786903    120881.34   -1666021.6      3853225 
   31400         7.85    2145.1357    727301.29   -1784409.9    121254.51   -1663155.4      3848223 
   31500        7.875    2152.4632     733238.6   -1781991.8     121668.7   -1660323.1    3843221.1 
   31600          7.9    2159.8162    740424.89   -1779587.4    122084.33     -1657503    3838219.1 
   31700        7.925    2166.6613    746580.65   -1777135.9    122471.25   -1654664.6    3833217.2 
   31800         7.95    2176.9858    752441.74   -1774875.3    123054.85   -1651820.5    3828215.2 
   31900        7.975    2184.5429    757830.46   -1772470.8    123482.01   -1648988.8    3823213.3 
   32000            8    2193.1562    763553.14   -1770113.2    123968.88   -1646144.3    3818211.3 
   32100        8.025     2204.822    769191.25   -1767893.2     124628.3   -1643264.9    3813209.3 
   32200         8.05    2216.5567    774614.62   -1765684.4     125291.6   -1640392.8    3808207.4 
   32300        8.075    2226.8781    780782.76   -1763470.1    125875.02   -1637595.1    3803205.4 
   32400          8.1    2237.4474    785761.43     -1761342    126472.46   -1634869.5    3798203.5 
   32500        8.125    2250.8489     791061.1   -1759412.8    127229.98   -1632182.9    3793201.5 
   32600         8.15    2260.1586    795109.72   -1757320.3    127756.22     -1629564    3788199.6 
   32700        8.175    2268.7909    801224.11   -1755319.2    128244.16   -1627075.1    3783197.6 
   32800          8.2    2275.3376    805726.85   -1753326.6    128614.21   -1624712.4    3778195.7 
   32900        8.225    2280.6534    809175.44   -1751326.2    128914.69   -1622411.5    3773193.7 
   33000         8.25    2293.7362    813826.85   -1749798.7     129654.2   -1620144.5    3768191.8 
   33100        8.275    2306.7109    816498.81   -1748336.1     130387.6   -1617948.5    3763189.8 
   33200          8.3    2316.8736     819047.4   -1746794.5    130962.05   -1615832.5    3758187.9 
   33300        8.325     2328.954    821352.66   -1745385.3     131644.9   -1613740.4    3753185.9 
   33400         8.35    2342.9927    824848.98   -1744070.1    132438.44   -1611631.7    3748183.9 
   33500        8.375    2356.2976    827962.16   -1742711.1     133190.5   -1609520.6      3743182 
   33600          8.4     2373.756    829649.97     -1741597    134177.35   -1607419.6      3738180 
   33700        8.425    2391.6149    833153.86   -1740502.5    135186.82   -1605315.6    3733178.1 
   33800         8.45    2406.1033    837736.92   -1739238.8    136005.79     -1603233    3728176.1 
   33900        8.475     2416.366    845209.01   -1737806.6    136585.89   -1601220.7    3723174.2 
   34000          8.5    2424.9092    854956.88   -1736358.9     137068.8   -1599290.1    3718172.2 
   34100        8.525    2429.6621     864430.4   -1734746.2    137337.46   -1597408.7    3713170.3 
   34200         8.55    2426.9139    874701.89   -1732724.1    137182.12   -1595541.9    3708168.3 
   34300        8.575    2431.0828    884008.86   -1731077.8    137417.76     -1593660    3703166.4 
   34400          8.6    2432.8621    897879.49   -1729219.5    137518.34   -1591701.2    3698164.4 
   34500        8.625    2441.5786    908799.62   -1727567.5    138011.04   -1589556.5    3693162.5 
   34600         8.65    2445.3683    923124.69   -1725386.5    138225.26   -1587161.3    3688160.5 
   34700        8.675    2449.0011    937309.27   -1723001.5     138430.6   -1584570.9    3683158.6 
   34800          8.7    2445.0398    952330.97   -1720108.3    138206.69   -1581901.6    3678156.6 
   34900        8.725    2438.7803    968420.54   -1717061.3    137852.87   -1579208.4    3673154.6 
   35000         8.75    2430.9912    980521.36   -1713862.2    137412.58   -1576449.6    3668152.7 
   35100        8.775    2424.9046    992754.44   -1710605.6    137068.54     -1573537    3663150.7 
   35200          8.8    2423.6572    1003261.7   -1707426.7    136998.03   -1570428.7    3658148.8 
   35300        8.825    2416.8885    1009348.2   -1703807.6    136615.43   -1567192.2    3653146.8 
   35400         8.85    2413.2583    1016609.7   -1700371.5    136410.23   -1563961.3    3648144.9 
   35500        8.875    2403.1127      1022249   -1696650.2    135836.74   -1560813.4    3643142.9 
   35600          8.9    2392.8323    1027122.9   -1692961.8    135255.64   -1557706.1      3638141 
   35700        8.925    2381.0848    1032879.2   -1689104.5    134591.61   -1554512.9      3633139 
   35800         8.95    2373.4074    1038485.8   -1685302.9    134157.64   -1551145.3    3628137.1 
   35900        8.975     2364.705    1041291.2   -1681299.4    133665.74   -1547633.7    3623135.1 
   36000            9     2357.059    1045629.1   -1677306.8    133233.55   -1544073.3    3618133.2 
   36100        9.025    2347.3242    1051860.4   -1673216.6    132683.28   -1540533.3    3613131.2 
   36200         9.05    2340.1645    1056374.6   -1669288.8    132278.57   -1537010.2    3608129.2 
   36300        9.075    2329.3512    1062837.2   -1665138.7    131667.35   -1533471.4    3603127.3 
   36400          9.1      2322.47    1067735.4   -1661160.3    131278.39   -1529881.9    3598125.3 
   36500        9.125    2310.6723    1071227.2   -1656842.7    130611.52   -1526231.2    3593123.4 
   36600         9.15    2304.3341    1077646.6   -1652844.3    130253.25   -1522591.1    3588121.4 
   36700        9.175    2291.8254    1085388.3   -1648633.4    129546.19   -1519087.2    3583119.5 
   36800          9.2    2275.0492    1092084.4   -1644369.4    128597.91   -1515771.5    3578117.5 
   36900        9.225    2256.7586    1097879.6   -1640133.9    127564.03   -1512569.9    3573115.6 
   37000         9.25    2240.6199    1106420.2   -1636039.7    126651.79   -1509387.9    3568113.6 
   37100        9.275    2220.3944    1116633.5   -1631727.5    125508.53     -1506219    3563111.7 
   37200          9.3    2203.6459    1121432.4     -1627666    124561.81   -1503104.2    3558109.7 
   37300        9.325    2185.3169    1128334.4   -1623568.2    123525.76   -1500042.5    3553107.8 
   37400         9.35     2168.708    1139498.8   -1619598.7    122586.94   -1497011.7    3548105.8 
   37500        9.375    2155.7083      1146132   -1615861.7    121852.12   -1494009.6    3543103.8 
   37600          9.4    2145.9132    1154994.3   -1612353.1    121298.46   -1491054.6    3538101.9 
   37700        9.425    2132.8387    1164448.8   -1608689.7    120559.42   -1488130.3    3533099.9 
   37800         9.45    2124.6651    1174856.1   -1605288.6     120097.4   -1485191.2      3528098 
   37900        9.475    2114.8757    1181253.1   -1601794.8    119544.05   -1482250.7      3523096 
   38000          9.5    2107.0118    1188726.7   -1598444.9    119099.54   -1479345.4    3518094.1 
   38100        9.525    2099.8717    1199045.3     -1595146    118695.95   -1476450.1    3513092.1 
   38200         9.55    2098.1547    1206115.3   -1592104.8    118598.89   -1473505.9    3508090.2 
   38300        9.575    2092.3388    1215152.8   -1588773.4    118270.15   -1470503.3    3503088.2 
   38400          9.6    2088.1771    1220628.1   -1585514.2    118034.91   -1467479.3    3498086.3 
   38500        9.625    2087.3866    1229095.4   -1582423.2    117990.22     -1464433    3493084.3 
   38600         9.65    2084.6366    1236296.9   -1579143.4    117834.78   -1461308.6    3488082.4 
   38700        9.675    2085.1931    1246887.1   -1575953.6    117866.23   -1458087.4    3483080.4 
   38800          9.7     2083.349    1252178.3   -1572589.1    117761.99   -1454827.1    3478078.5 
   38900        9.725    2079.5461    1259965.5   -1569114.9    117547.04   -1451567.9    3473076.5 
   39000         9.75    2076.4398    1267663.2   -1565641.8    117371.45   -1448270.4    3468074.5 
   39100        9.775    2073.7499    1273988.4   -1562111.7     117219.4   -1444892.3    3463072.6 
   39200          9.8    2069.2465    1278921.7     -1558433    116964.85   -1441468.2    3458070.6 
   39300        9.825    2066.8231      1286965   -1554890.1    116827.86   -1438062.2    3453068.7 
   39400         9.85    2060.9226    1294232.9   -1551195.3    116494.34     -1434701    3448066.7 
   39500        9.875    2055.3724    1298367.8   -1547546.8    116180.61   -1431366.1    3443064.8 
   39600          9.9    2047.8699    1304010.5   -1543804.8    115756.53   -1428048.3    3438062.8 
   39700        9.925     2039.376    1310405.1   -1540040.1     115276.4   -1424763.7    3433060.9 
   39800         9.95    2028.5659    1315537.8     -1536214    114665.36   -1421548.6    3428058.9 
   39900        9.975    2014.7832    1319632.9   -1532311.7    113886.29   -1418425.5      3423057 
   40000           10    2001.6934    1324054.2   -1528538.3    113146.38   -1415391.9      3418055 
   40100       10.025    1985.9355    1327288.6   -1524691.4    112255.67   -1412435.7    3413053.1 
   40200        10.05    1961.7573    1332155.3   -1520460.2    110888.98   -1409571.2    3408051.1 
   40300       10.075    1938.1989    1335600.6   -1516379.7    109557.34   -1406822.3    3403049.1 
   40400         10.1    1910.1693    1338382.1   -1512172.6    107972.95   -1404199.7    3398047.2 
   40500       10.125    1876.7493    1341680.8   -1507765.3    106083.88   -1401681.5    3393045.2 
   40600        10.15    1847.7882    1347170.2   -1503667.8    104446.84   -1399220.9    3388043.3 
   40700       10.175    1809.1648    1352787.2   -1499063.7    102263.64   -1396800.1    3383041.3 
   40800         10.2    1773.2519    1357315.7   -1494689.2    100233.65   -1394455.5    3378039.4 
   40900       10.225    1734.4242    1360733.8   -1490232.6    98038.904   -1392193.7    3373037.4 
   41000        10.25    1694.2974    1367916.4   -1485732.3    95770.721   -1389961.6    3368035.5 
   41100       10.275    1655.0643    1373778.9   -1481267.6    93553.061   -1387714.6    3363033.5 
   41200         10.3    1617.4898    1380332.9   -1476910.7     91429.15   -1385481.5    3358031.6 
   41300       10.325    1576.5066    1386228.4   -1472410.1     89112.56   -1383297.5    3353029.6 
   41400        10.35     1536.988    1396349.9   -1468011.6    86878.756   -1381132.8    3348027.7 
   41500       10.375    1503.5102    1403491.2   -1463905.9    84986.411   -1378919.5    3343025.7 
   41600         10.4    1471.3217    1411896.8   -1459787.3    83166.946   -1376620.4    3338023.7 
   41700       10.425    1444.1635    1420485.2   -1455833.4    81631.821   -1374201.6    3333021.8 
   41800        10.45     1420.546    1427268.5   -1451846.8    80296.832   -1371549.9    3328019.8 
   41900       10.475    1407.3074    1438360.9   -1448025.7    79548.519   -1368477.1    3323017.9 
   42000         10.5    1401.0948    1448955.9   -1444085.1    79197.347   -1364887.8    3318015.9 
   42100       10.525    1399.6006      1460008   -1440119.3    79112.886   -1361006.4      3313014 
   42200        10.55    1396.0739    1471880.4   -1436126.9    78913.543   -1357213.4      3308012 
   42300       10.575    1393.0723    1479322.8   -1432354.4    78743.875   -1353610.6    3303010.1 
   42400         10.6    1387.5749    1493769.8   -1428373.2     78433.13   -1349940.1    3298008.1 
   42500       10.625    1389.6584      1502420   -1424464.3    78550.901   -1345913.4    3293006.2 
   42600        10.65    1399.8055    1513288.7   -1420555.4     79124.47   -1341430.9    3288004.2 
   42700       10.675    1414.9493    1526424.2     -1416633    79980.478   -1336652.5    3283002.3 
   42800         10.7    1430.9268    1535687.3   -1412751.5    80883.611   -1331867.9    3278000.3 
   42900       10.725    1445.2629    1546787.6   -1408928.6    81693.965   -1327234.7    3272998.4 
   43000        10.75    1461.1129    1554090.7   -1405204.7    82589.893   -1322614.8    3267996.4 
   43100       10.775    1479.0807    1561063.9   -1401320.3    83605.527   -1317714.8    3262994.4 
   43200         10.8    1497.1496    1571435.3   -1397105.7    84626.878   -1312478.8    3257992.5 
   43300       10.825    1523.1952    1578610.9   -1393290.1    86099.114     -1307191    3252990.5 
   43400        10.85    1538.1814    1584503.2   -1389033.9    86946.214   -1302087.7    3247988.6 
   43500       10.875    1549.0443    1588937.3   -1384598.4    87560.244   -1297038.1    3242986.6 
   43600         10.9    1563.5105    1596354.4   -1380223.1    88377.949   -1291845.1    3237984.7 
   43700       10.925    1572.2235    1602348.9   -1375464.3    88870.453   -1286593.9    3232982.7 
   43800        10.95    1578.4317    1610168.8   -1370734.4    89221.375   -1281513.1    3227980.8 
   43900       10.975    1576.0139    1617477.7   -1365695.5    89084.707   -1276610.8    3222978.8 
   44000           11    1564.2727    1625030.5   -1360155.4    88421.034   -1271734.3    3217976.9 
   44100       11.025    1553.7607    1633469.2   -1354657.6     87826.84   -1266830.7    3212974.9 
   44200        11.05    1538.3931    1645835.1   -1348872.9    86958.184   -1261914.8      3207973 
   44300       11.075    1522.8299    1656300.9   -1342973.4    86078.468     -1256895      3202971 
   44400         11.1    1507.8025      1667705   -1336894.2    85229.036   -1251665.1      3197969 
   44500       11.125     1495.057    1679852.7   -1330753.2    84508.591   -1246244.6    3192967.1 
   44600        11.15     1491.049    1694644.4   -1325006.7    84282.038   -1240724.6    3187965.1 
   44700       11.175    1476.4217      1710025   -1318538.1    83455.229   -1235082.8    3182963.2 
   44800         11.2      1471.61    1721347.4   -1312353.4    83183.244   -1229170.2    3177961.2 
   44900       11.225    1473.0842    1735278.4   -1306110.3    83266.574   -1222843.7    3172959.3 
   45000        11.25    1479.9544    1750144.9   -1299708.9    83654.916     -1216054    3167957.3 
   45100       11.275    1491.9854    1763652.9   -1293178.1    84334.968   -1208843.2    3162955.4 
   45200         11.3     1507.831    1779967.7   -1286514.7    85230.646     -1201284    3157953.4 
   45300       11.325    1530.6923    1792543.4   -1279924.9    86522.893     -1193402    3152951.5 
   45400        11.35    1552.7692    1808155.5   -1272922.6    87770.797   -1185151.8    3147949.5 
   45500       11.375    1590.4469    1819622.1   -1266482.7    89900.542   -1176582.2    3142947.6 
   45600         11.4     1628.091    1836918.5     -1259888    92028.382   -1167859.7    3137945.6 
   45700       11.425    1665.0664    1851320.2   -1253212.7    94118.428   -1159094.3    3132943.7 
   45800        11.45    1717.3543    1860733.2   -1247282.3     97074.02   -1150208.2    3127941.7 
   45900       11.475    1765.0623    1880339.6   -1240946.3    99770.734   -1141175.5    3122939.7 
   46000         11.5    1816.4322    1887961.1   -1234819.5    102674.43   -1132145.1    3117937.8 
   46100       11.525    1872.2085    1900270.6   -1229053.5    105827.21   -1123226.3    3112935.8 
   46200        11.55    1924.0141    1913401.1   -1223162.3    108755.54   -1114406.8    3107933.9 
   46300       11.575    1973.2363    1925350.5   -1217217.3    111537.84   -1105679.4    3102931.9 
   46400         11.6    2022.1773    1936678.2   -1211403.6    114304.24   -1097099.4      3097930 
   46500       11.625    2063.3038      1948759     -1205300    116628.93   -1088671.1      3092928 
   46600        11.65    2104.8001    1959907.3   -1199327.7    118974.53   -1080353.1    3087926.1 
   46700       11.675    2143.7381    1974586.1   -1193341.4    121175.51   -1072165.9    3082924.1 
   46800         11.7    2175.8498    1983974.2   -1187128.7    122990.63   -1064138.1    3077922.2 
   46900       11.725    2206.7765    1994183.3   -1180953.8    124738.77     -1056215    3072920.2 
   47000        11.75    2243.0977    2008187.2   -1175112.4    126791.84   -1048320.5    3067918.3 
   47100       11.775    2274.7208    2022400.6   -1169023.3    128579.35     -1040444    3062916.3 
   47200         11.8    2304.6072    2034443.7   -1162850.9    130268.69   -1032582.3    3057914.3 
   47300       11.825    2330.1037    2050106.2   -1156351.7    131709.89   -1024641.8    3052912.4 
   47400        11.85    2360.3841    2060053.8   -1149998.7    133421.49   -1016577.2    3047910.4 
   47500       11.875    2385.7645    2072858.1     -1143296    134856.13   -1008439.9    3042908.5 
   47600         11.9    2408.0502    2092653.8   -1136393.3    136115.84   -1000277.5    3037906.5 
   47700       11.925     2427.132    2102391.3     -1129246    137194.44    -992051.6    3032904.6 
   47800        11.95    2447.3001    2120047.7   -1122089.3    138334.45    -983754.8    3027902.6 
   47900       11.975    2465.2485    2131438.8   -1114790.7    139348.99   -975441.73    3022900.7 
   48000           12    2480.7733      2145347   -1107370.7    140226.54   -967144.15    3017898.7 
   48100       12.025    2497.8984      2159258   -1100066.5    141194.54   -958871.97    3012896.8 
   48200        12.05    2516.4816    2176635.5     -1092911    142244.96      -950666    3007894.8 
   48300       12.075    2532.6646    2187134.6   -1085745.7    143159.71   -942586.03    3002892.9 
   48400         12.1    2547.9626    2204311.8   -1078650.7    144024.43   -934626.27    2997890.9 
   48500       12.125    2565.0149    2215366.2   -1071731.4    144988.32    -926743.1    2992888.9 
   48600        12.15    2575.1901    2231326.5   -1064514.3    145563.48   -918950.87      2987887 
   48700       12.175    2587.8317    2249918.8   -1057550.3    146278.05   -911272.21      2982885 
   48800         12.2     2601.773    2265321.1   -1050792.3    147066.08   -903726.24    2977883.1 
   48900       12.225    2613.8995      2282786   -1044074.8    147751.54   -896323.29    2972881.1 
   49000        12.25    2623.9879    2301578.4   -1037388.5    148321.79   -889066.68    2967879.2 
   49100       12.275    2639.6245    2320392.3   -1031155.6    149205.65   -881949.98    2962877.2 
   49200         12.3    2650.0748    2340399.9   -1024732.6    149796.36   -874936.28    2957875.3 
   49300       12.325     2664.456    2360244.3   -1018557.1    150609.26   -867947.82    2952873.3 
   49400        12.35    2681.3514    2380156.9     -1012473    151564.28   -860908.74    2947871.4 
   49500       12.375    2694.3189    2402729.6   -1006073.5    152297.27   -853776.19    2942869.4 
   49600         12.4    2711.7784    2417323.9   -999826.64    153284.17   -846542.47    2937867.5 
   49700       12.425    2728.4692    2438332.6   -993422.49    154227.63   -839194.86    2932865.5 
   49800        12.45     2745.019    2459824.7   -986828.85    155163.11   -831665.74    2927863.6 
   49900       12.475     2761.816    2478721.6   -980005.09    156112.57   -823892.52    2922861.6 
   50000         12.5     2783.514      2499701    -973257.2    157339.06   -815918.15    2917859.6 
Loop time of 4114.73 on 96 procs for 50000 steps with 437300 atoms

Performance: 0.262 ns/day, 91.438 hours/ns, 12.151 timesteps/s
100.0% CPU use with 96 MPI tasks x 1 OpenMP threads

MPI task timing breakdown:
Section |  min time  |  avg time  |  max time  |%varavg| %total
---------------------------------------------------------------
Pair    | 1043.1     | 1553.8     | 4019.7     |2136.4 | 37.76
Neigh   | 11.503     | 14.63      | 19.6       |  57.1 |  0.36
Comm    | 28.102     | 482.81     | 2620.1     |3487.3 | 11.73
Output  | 9.4068     | 9.4085     | 9.4935     |   0.3 |  0.23
Modify  | 28.935     | 2049.8     | 2772.6     |2513.9 | 49.82
Other   |            | 4.253      |            |       |  0.10

Nlocal:        4555.21 ave        5055 max        4322 min
Histogram: 8 29 27 13 6 1 0 0 2 10
Nghost:        12743.9 ave       13807 max       12124 min
Histogram: 5 21 29 11 8 7 3 0 0 12
Neighs:         0.00000 ave           0 max           0 min
Histogram: 96 0 0 0 0 0 0 0 0 0
FullNghs:  1.46537e+06 ave  1.6745e+06 max      981847 min
Histogram: 12 0 0 6 6 0 0 12 44 16

Total # of neighbors = 1.4067563e+08
Ave neighs/atom = 321.69135
Neighbor list builds = 489
Dangerous builds = 0
Total wall time: 1:08:39
