LAMMPS (24 Mar 2022)
OMP_NUM_THREADS environment is not set. Defaulting to 1 thread. (src/comm.cpp:98)
  using 1 OpenMP thread(s) per MPI task
# Compute elastic constant tensor for a crystal
#
# Written by Aidan Thompson (Sandia, athomps@sandia.gov)
#
#  This script uses the following three include files.
#
#   init.mod      (must be modified for different crystal structures)
# 	       	  Define units, deformation parameters and initial
#		  configuration of the atoms and simulation cell.
#
#
#   potential.mod    (must be modified for different pair styles)
# 		     Define pair style and other attributes
#		     not stored in restart file
#
#
#   displace.mod    (displace.mod should not need to be modified)
# 		    Perform positive and negative box displacements
# 		    in direction ${dir} and size ${up}.
# 		    It uses the resultant changes
#		    in stress to compute one
# 		    row of the elastic stiffness tensor
#
#		    Inputs variables:
#		    	   dir = the Voigt deformation component
#		    		    (1,2,3,4,5,6)
#		    Global constants:
#       	    	   up = the deformation magnitude (strain units)
#       		   cfac = conversion from LAMMPS pressure units to
#               	   output units for elastic constants
#
#
#  To run this on a different system, it should only be necessary to
#  modify the files init.mod and potential.mod. In order to calculate
#  the elastic constants correctly, care must be taken to specify
#  the correct units in init.mod (units, cfac and cunits). It is also
#  important to verify that the minimization of energy w.r.t atom
#  positions in the deformed cell is fully converged.
#  One indication of this is that the elastic constants are insensitive
#  to the choice of the variable ${up} in init.mod. Another is to check
#  the final max and two-norm forces reported in the log file. If you know
#  that minimization is not required, you can set maxiter = 0.0 in
#  init.mod.
#

include init.mod
# NOTE: This script can be modified for different atomic structures,
# units, etc. See in.elastic for more info.
#

# Define the finite deformation size. Try several values of this
# variable to verify that results do not depend on it.
variable up equal 1.0e-6

# Define the amount of random jiggle for atoms
# This prevents atoms from staying on saddle points
variable atomjiggle equal 1.0e-5

# Uncomment one of these blocks, depending on what units
# you are using in LAMMPS and for output

# metal units, elastic constants in eV/A^3
#units		metal
#variable cfac equal 6.2414e-7
#variable cunits string eV/A^3

# metal units, elastic constants in GPa
units		metal
variable cfac equal 1.0e-4
variable cunits string GPa

# real units, elastic constants in GPa
#units		real
#variable cfac equal 1.01325e-4
#variable cunits string GPa

# Define minimization parameters
variable etol equal 0.0
variable ftol equal 1.0e-10
variable maxiter equal 100
variable maxeval equal 1000
variable dmax equal 1.0e-2

# generate the box and atom positions using a diamond lattice

boundary	p p p

box tilt large
read_data Al2O3_npt_equil.data
Reading data file ...
  triclinic box = (0.033633176 0.029127183 0.030602755) to (28.796535 24.938529 26.201905) with tilt (-14.381451 0 0)
WARNING: Triclinic box skew is large (src/domain.cpp:228)
  2 by 1 by 3 MPI processor grid
  reading atoms ...
  2160 atoms
  reading velocities ...
  2160 velocities
  read_data CPU = 0.011 seconds



# Need to set mass to something, just to satisfy LAMMPS
mass 2 15.999

include potential.mod
# NOTE: This script can be modified for different pair styles
# See in.elastic for more info.

# Choose potential
pair_style hybrid/overlay eam/alloy edip/multi
pair_coeff * * eam/alloy Mishin-Ni-Al-2009.eam.alloy Al NULL
pair_coeff * * edip/multi NiAlO.edip Al O



# Setup neighbor style
neighbor 1.0 nsq
neigh_modify once no every 1 delay 0 check yes

# Setup minimization style
min_style	     cg
min_modify	     dmax ${dmax} line quadratic
min_modify	     dmax 0.01 line quadratic

# Setup output
thermo		1
thermo_style custom step temp pe press pxx pyy pzz pxy pxz pyz lx ly lz vol
thermo_modify norm no
minimize 0.0 1.0e-10 10000 1000000

CITE-CITE-CITE-CITE-CITE-CITE-CITE-CITE-CITE-CITE-CITE-CITE-CITE

Your simulation uses code contributions which should be cited:

- @article{cjiang2012
 author    = {Jian, Chao and Morgan, Dane, and Szlufarska, Izabella},
 title     = {Carbon tri-interstitial defect: A model for DII center},
 journal   = {Physical Review B},
 volume    = {86},
 pages     = {144118},
 year      = {2012},
}

@article{lpizzagalli2010,
 author    = {G. Lucas, M. Bertolus, and L. Pizzagalli},
 journal   = {J. Phys. : Condens. Matter 22},
 volume    = {22},
 pages     = {035802},
 year      = {2010},
}

CITE-CITE-CITE-CITE-CITE-CITE-CITE-CITE-CITE-CITE-CITE-CITE-CITE

Neighbor list info ...
  update every 1 steps, delay 0 steps, check yes
  max neighbors/atom: 2000, page size: 100000
  master list distance cutoff = 7.28721
  ghost atom cutoff = 7.28721
  3 neighbor lists, perpetual/occasional/extra = 3 0 0
  (1) pair eam/alloy, perpetual, skip from (3)
      attributes: half, newton on
      pair build: skip
      stencil: none
      bin: none
  (2) pair edip/multi, perpetual
      attributes: full, newton on
      pair build: full/nsq
      stencil: none
      bin: none
  (3) neighbor class addition, perpetual, half/full from (2)
      attributes: half, newton on
      pair build: halffull/newton
      stencil: none
      bin: none
Per MPI rank memory allocation (min/avg/max) = 5.819 | 5.82 | 5.821 Mbytes
   Step          Temp          PotEng         Press           Pxx            Pyy            Pzz            Pxy            Pxz            Pyz             Lx             Ly             Lz           Volume    
         0   310.83669     -15876.499     -2507.9195      38946.437      39651.581     -86121.776      282.50118     -0.54369667    -864.85816      28.762902      24.909402      26.171302      18750.866    
         1   310.83669     -15888.683     -5817.8528      35855.279      36376.112     -89684.95       165.43249      115.10517     -894.94476      28.762902      24.909402      26.171302      18750.866    
         2   310.83669     -15899.588     -8754.7368      33126.871      33490.855     -92881.936      60.509215      212.34222     -925.9821       28.762902      24.909402      26.171302      18750.866    
         3   310.83669     -15909.392     -11352.386      30726.814      30964.867     -95748.838     -33.048747      288.28571     -955.64945      28.762902      24.909402      26.171302      18750.866    
         4   310.83669     -15917.696     -13493.073      28759.683      28914.563     -98153.466     -109.66353      334.622       -979.5996       28.762902      24.909402      26.171302      18750.866    
         5   310.83669     -15924.446     -15161.807      27234.278      27351.273     -100070.97     -167.21241      349.03149     -994.72159      28.762902      24.909402      26.171302      18750.866    
         6   310.83669     -15930.019     -16462.442      26052.695      26170.805     -101610.82     -208.59459      334.33114     -1000.1271      28.762902      24.909402      26.171302      18750.866    
         7   310.83669     -15934.739     -17482.4        25135.396      25286.487     -102869.08     -236.53393      293.20228     -995.27078      28.762902      24.909402      26.171302      18750.866    
         8   310.83669     -15938.766     -18270.352      24441.251      24648.369     -103900.67     -252.929        229.21141     -979.74153      28.762902      24.909402      26.171302      18750.866    
         9   310.83669     -15942.189     -18862.045      23943.031      24217.502     -104746.67     -260.15778      148.28641     -953.86362      28.762902      24.909402      26.171302      18750.866    
        10   310.83669     -15945.001     -19279.79       23624.221      23963.147     -105426.74     -261.31538      60.481206     -919.66471      28.762902      24.909402      26.171302      18750.866    
        11   310.83669     -15947.392     -19574.975      23442.597      23836.975     -106004.5      -259.73706     -30.368365     -877.46989      28.762902      24.909402      26.171302      18750.866    
        12   310.83669     -15949.471     -19775.711      23377.155      23814.487     -106518.78     -257.41377     -121.69374     -826.68517      28.762902      24.909402      26.171302      18750.866    
        13   310.83669     -15951.279     -19896.693      23416.948      23882.059     -106989.09     -255.52971     -209.53273     -767.19016      28.762902      24.909402      26.171302      18750.866    
        14   310.83669     -15952.838     -19950.023      23549.686      24026.394     -107426.15     -254.5446      -288.73961     -699.96487      28.762902      24.909402      26.171302      18750.866    
        15   310.83669     -15954.153     -19949.107      23755.481      24228.791     -107831.59     -254.089       -353.12863     -628.10512      28.762902      24.909402      26.171302      18750.866    
        16   310.83669     -15955.254     -19909.56       24011.852      24470.232     -108210.76     -253.0639      -398.78318     -554.65417      28.762902      24.909402      26.171302      18750.866    
        17   310.83669     -15956.199     -19843.977      24305.317      24740.813     -108578.06     -250.00753     -424.2043      -480.39377      28.762902      24.909402      26.171302      18750.866    
        18   310.83669     -15957.027     -19761.901      24626.782      25034.298     -108946.78     -243.343       -427.43759     -405.40188      28.762902      24.909402      26.171302      18750.866    
        19   310.83669     -15957.704     -19681.249      24936.201      25315.859     -109295.81     -232.57071     -407.93531     -336.26386      28.762902      24.909402      26.171302      18750.866    
        20   310.83669     -15958.256     -19613.21       25215.469      25569.695     -109624.79     -218.54235     -371.47594     -272.97794      28.762902      24.909402      26.171302      18750.866    
        21   310.83669     -15958.71      -19564.087      25456.285      25786.838     -109935.38     -202.91235     -324.84075     -213.52324      28.762902      24.909402      26.171302      18750.866    
        22   310.83669     -15959.086     -19537.558      25654.508      25962.321     -110229.5      -187.28539     -274.57782     -155.23826      28.762902      24.909402      26.171302      18750.866    
        23   310.83669     -15959.376     -19533.26       25799.347      26083.715     -110482.84     -174.2453      -230.19791     -102.80402      28.762902      24.909402      26.171302      18750.866    
        24   310.83669     -15959.596     -19548.658      25898.443      26172.902     -110717.32     -164.01151     -194.77528     -47.495555      28.762902      24.909402      26.171302      18750.866    
        25   310.83669     -15959.725     -19522.905      26029.204      26192.358     -110790.28     -154.77626     -177.18451     -71.266032      28.762902      24.909402      26.171302      18750.866    
        26   310.83669     -15959.897     -19559.849      26053.078      26264.627     -110997.25     -152.88704     -144.5478       18.897691      28.762902      24.909402      26.171302      18750.866    
        27   310.83669     -15959.914     -19587.159      26049.846      26290.139     -111101.46     -148.92582     -144.48672      41.139754      28.762902      24.909402      26.171302      18750.866    
        28   310.83669     -15960.016     -19633.337      26102.136      26316.233     -111318.38     -132.59762     -158.10663      40.623658      28.762902      24.909402      26.171302      18750.866    
        29   310.83669     -15960.045     -19588.338      26083.419      26313.393     -111161.83     -156.03431     -141.16435      70.392175      28.762902      24.909402      26.171302      18750.866    
        30   310.83669     -15960.091     -19557.88       26143.848      26322.026     -111139.51     -179.56031     -129.92904      79.213531      28.762902      24.909402      26.171302      18750.866    
        31   310.83669     -15960.171     -19635.338      26203.559      26365.341     -111474.91     -149.74949     -150.95909      88.310583      28.762902      24.909402      26.171302      18750.866    
        32   310.83669     -15960.181     -19630.233      26171.164      26397.358     -111459.22     -136.18687     -155.03467      123.66967      28.762902      24.909402      26.171302      18750.866    
        33   310.83669     -15960.194     -19605.799      26159.359      26397.072     -111373.83     -124.34905     -156.61729      98.318073      28.762902      24.909402      26.171302      18750.866    
        34   310.83669     -15960.225     -19638.615      26186.76       26386.322     -111488.93     -138.13563     -142.14289      49.525303      28.762902      24.909402      26.171302      18750.866    
        35   310.83669     -15960.235     -19661.095      26174.637      26414.713     -111572.63     -141.14048     -138.1839       98.967987      28.762902      24.909402      26.171302      18750.866    
        36   310.83669     -15960.239     -19647.278      26192.06       26396.501     -111530.39     -131.25778     -152.18189      107.86495      28.762902      24.909402      26.171302      18750.866    
        37   310.83669     -15960.244     -19639.479      26215.167      26386.757     -111520.36     -137.07912     -155.36658      123.11709      28.762902      24.909402      26.171302      18750.866    
        38   310.83669     -15960.25      -19653.045      26224.374      26419.271     -111602.78     -151.63123     -147.02539      164.17252      28.762902      24.909402      26.171302      18750.866    
        39   310.83669     -15960.259     -19646.512      26238.797      26431.118     -111609.45     -138.18571     -155.28094      147.11535      28.762902      24.909402      26.171302      18750.866    
        40   310.83669     -15960.263     -19632.532      26227.857      26436.571     -111562.02     -129.7314      -156.08967      140.31417      28.762902      24.909402      26.171302      18750.866    
        41   310.83669     -15960.266     -19643.204      26222.735      26440.486     -111592.83     -137.31182     -146.88822      140.0123       28.762902      24.909402      26.171302      18750.866    
        42   310.83669     -15960.268     -19656.588      26232.171      26422.121     -111624.06     -141.01407     -142.67652      110.85777      28.762902      24.909402      26.171302      18750.866    
        43   310.83669     -15960.271     -19652.348      26207.593      26415.11      -111579.75     -133.25917     -142.77176      102.56086      28.762902      24.909402      26.171302      18750.866    
        44   310.83669     -15960.275     -19660.506      26177.519      26419.63      -111578.67     -128.49606     -141.91599      107.78281      28.762902      24.909402      26.171302      18750.866    
        45   310.83669     -15960.278     -19677.666      26192.754      26409.898     -111635.65     -135.53853     -141.06116      101.39185      28.762902      24.909402      26.171302      18750.866    
        46   310.83669     -15960.281     -19669.105      26200.356      26410.903     -111618.57     -139.22279     -143.67381      130.30133      28.762902      24.909402      26.171302      18750.866    
        47   310.83669     -15960.282     -19656.464      26212.45       26415.355     -111597.2      -134.88391     -152.16259      154.37143      28.762902      24.909402      26.171302      18750.866    
        48   310.83669     -15960.284     -19656.794      26238.82       26421.589     -111630.79     -135.12511     -155.8363       153.93353      28.762902      24.909402      26.171302      18750.866    
        49   310.83669     -15960.285     -19651.271      26247.765      26441.34      -111642.92     -141.7557      -149.26058      155.27629      28.762902      24.909402      26.171302      18750.866    
        50   310.83669     -15960.286     -19640.57       26244.537      26449.377     -111615.63     -137.98031     -148.36717      142.29629      28.762902      24.909402      26.171302      18750.866    
        51   310.83669     -15960.287     -19644.034      26240.365      26449.875     -111622.34     -131.84305     -149.47583      126.83091      28.762902      24.909402      26.171302      18750.866    
        52   310.83669     -15960.288     -19653.926      26230.84       26447.992     -111640.61     -135.21825     -145.39838      128.74297      28.762902      24.909402      26.171302      18750.866    
        53   310.83669     -15960.288     -19656.236      26225.566      26430.876     -111625.15     -138.34443     -145.04877      127.45709      28.762902      24.909402      26.171302      18750.866    
        54   310.83669     -15960.289     -19659.634      26218.415      26416.059     -111613.38     -136.0873      -148.88151      131.77186      28.762902      24.909402      26.171302      18750.866    
        55   310.83669     -15960.289     -19666.619      26212          26418.739     -111630.6      -135.36716     -149.70883      142.82872      28.762902      24.909402      26.171302      18750.866    
        56   310.83669     -15960.289     -19665.794      26215.71       26418.834     -111631.93     -136.68368     -149.33186      140.64035      28.762902      24.909402      26.171302      18750.866    
        57   310.83669     -15960.289     -19659.347      26220.143      26422.469     -111620.65     -137.07388     -148.57796      138.43786      28.762902      24.909402      26.171302      18750.866    
        58   310.83669     -15960.29      -19656.951      26224.384      26432.716     -111627.95     -135.59413     -148.54194      140.46409      28.762902      24.909402      26.171302      18750.866    
        59   310.83669     -15960.29      -19655.039      26234.325      26438.074     -111637.52     -135.0196      -148.82174      134.89404      28.762902      24.909402      26.171302      18750.866    
        60   310.83669     -15960.29      -19650.371      26237.495      26440.312     -111628.92     -136.95826     -147.09816      132.74401      28.762902      24.909402      26.171302      18750.866    
        61   310.83669     -15960.29      -19650.08       26234.399      26442.257     -111626.9      -136.79871     -146.77846      135.18056      28.762902      24.909402      26.171302      18750.866    
        62   310.83669     -15960.29      -19654.042      26232.783      26439.289     -111634.2      -135.01639     -148.47161      134.65676      28.762902      24.909402      26.171302      18750.866    
        63   310.83669     -15960.29      -19655.99       26228.878      26434.672     -111631.52     -135.753       -148.47923      137.56382      28.762902      24.909402      26.171302      18750.866    
        64   310.83669     -15960.29      -19657.313      26224.932      26429.053     -111625.92     -137.03495     -148.24553      140.59697      28.762902      24.909402      26.171302      18750.866    
        65   310.83669     -15960.29      -19660.223      26224.008      26424.893     -111629.57     -136.36984     -149.11312      139.39483      28.762902      24.909402      26.171302      18750.866    
        66   310.83669     -15960.29      -19661.589      26221.651      26425.725     -111632.14     -135.68856     -148.95401      139.09337      28.762902      24.909402      26.171302      18750.866    
        67   310.83669     -15960.29      -19659.634      26220.936      26427.505     -111627.34     -136.11914     -147.94269      137.15755      28.762902      24.909402      26.171302      18750.866    
        68   310.83669     -15960.29      -19658.301      26223.942      26429.235     -111628.08     -136.23856     -147.62403      134.30092      28.762902      24.909402      26.171302      18750.866    
        69   310.83669     -15960.29      -19657.555      26226.806      26433.395     -111632.87     -135.80612     -147.80257      135.58201      28.762902      24.909402      26.171302      18750.866    
        70   310.83669     -15960.29      -19655.512      26229.372      26434.962     -111630.87     -135.74934     -148.22174      136.66597      28.762902      24.909402      26.171302      18750.866    
        71   310.83669     -15960.29      -19654.216      26231.403      26434.543     -111628.59     -136.35685     -148.27896      136.81202      28.762902      24.909402      26.171302      18750.866    
        72   310.83669     -15960.29      -19655.297      26230.78       26435.232     -111631.9      -136.49335     -148.20129      138.44946      28.762902      24.909402      26.171302      18750.866    
        73   310.83669     -15960.29      -19656.23       26229.154      26434.186     -111632.03     -135.81692     -148.61185      138.2636       28.762902      24.909402      26.171302      18750.866    
        74   310.83669     -15960.29      -19656.67       26226.912      26431.623     -111628.54     -135.78561     -148.48844      137.24522      28.762902      24.909402      26.171302      18750.866    
        75   310.83669     -15960.29      -19658.039      26225.143      26430.455     -111629.71     -136.34975     -147.89589      137.41647      28.762902      24.909402      26.171302      18750.866    
        76   310.83669     -15960.29      -19659.019      26224.953      26429.485     -111631.5      -136.14105     -148.04576      136.56324      28.762902      24.909402      26.171302      18750.866    
        77   310.83669     -15960.29      -19658.401      26224.805      26429.451     -111629.46     -135.81598     -148.23802      136.32375      28.762902      24.909402      26.171302      18750.866    
        78   310.83669     -15960.29      -19657.781      26225.122      26430.685     -111629.15     -136.09427     -148.01917      137.07324      28.762902      24.909402      26.171302      18750.866    
        79   310.83669     -15960.29      -19657.496      26226.962      26431.755     -111631.2      -136.21244     -148.10443      136.95095      28.762902      24.909402      26.171302      18750.866    
        80   310.83669     -15960.29      -19656.629      26228.15       26432.85      -111630.89     -136.00178     -148.34917      137.49138      28.762902      24.909402      26.171302      18750.866    
        81   310.83669     -15960.29      -19655.761      26228.644      26433.668     -111629.6      -135.97031     -148.42755      138.32587      28.762902      24.909402      26.171302      18750.866    
        82   310.83669     -15960.29      -19655.939      26229.542      26433.455     -111630.81     -136.18447     -148.37154      137.65994      28.762902      24.909402      26.171302      18750.866    
        83   310.83669     -15960.29      -19656.387      26228.955      26433.279     -111631.39     -136.23816     -148.18658      137.30507      28.762902      24.909402      26.171302      18750.866    
        84   310.83669     -15960.29      -19656.612      26227.381      26432.826     -111630.04     -135.98512     -148.14928      137.08859      28.762902      24.909402      26.171302      18750.866    
        85   310.83669     -15960.29      -19657.157      26226.642      26431.866     -111629.98     -135.90376     -148.171        136.48503      28.762902      24.909402      26.171302      18750.866    
        86   310.83669     -15960.29      -19657.819      26226.146      26431.234     -111630.84     -136.14011     -148.04183      136.75937      28.762902      24.909402      26.171302      18750.866    
        87   310.83669     -15960.291     -19657.883      26225.874      26430.691     -111630.21     -136.16231     -148.14621      137.27294      28.762902      24.909402      26.171302      18750.866    
        88   310.83669     -15960.291     -19657.659      26226.168      26430.526     -111629.67     -135.99985     -148.36242      137.28676      28.762902      24.909402      26.171302      18750.866    
        89   310.83669     -15960.291     -19657.543      26226.563      26431.334     -111630.53     -136.07947     -148.27939      137.57357      28.762902      24.909402      26.171302      18750.866    
        90   310.83669     -15960.291     -19657.191      26227.107      26432.023     -111630.7      -136.1472      -148.19187      137.45675      28.762902      24.909402      26.171302      18750.866    
        91   310.83669     -15960.291     -19656.75       26227.567      26432.329     -111630.15     -136.04112     -148.23167      137.12003      28.762902      24.909402      26.171302      18750.866    
        92   310.83669     -15960.291     -19656.666      26227.707      26432.705     -111630.41     -136.01016     -148.20148      137.19384      28.762902      24.909402      26.171302      18750.866    
        93   310.83669     -15960.291     -19656.797      26227.789      26432.615     -111630.8      -136.08619     -148.16209      137.0819       28.762902      24.909402      26.171302      18750.866    
        94   310.83669     -15960.291     -19656.863      26227.578      26432.249     -111630.42     -136.11779     -148.15621      136.97182      28.762902      24.909402      26.171302      18750.866    
        95   310.83669     -15960.291     -19657.023      26227.065      26432.058     -111630.19     -136.05299     -148.18914      137.19425      28.762902      24.909402      26.171302      18750.866    
        96   310.83669     -15960.291     -19657.274      26226.875      26431.8       -111630.5      -136.02315     -148.23944      137.21691      28.762902      24.909402      26.171302      18750.866    
        97   310.83669     -15960.291     -19657.367      26226.805      26431.546     -111630.45     -136.09206     -148.22254      137.24666      28.762902      24.909402      26.171302      18750.866    
        98   310.83669     -15960.291     -19657.291      26226.746      26431.545     -111630.16     -136.10833     -148.21068      137.37008      28.762902      24.909402      26.171302      18750.866    
        99   310.83669     -15960.291     -19657.248      26226.927      26431.662     -111630.33     -136.04601     -148.25072      137.24859      28.762902      24.909402      26.171302      18750.866    
       100   310.83669     -15960.291     -19657.181      26227.093      26431.89      -111630.53     -136.05969     -148.21471      137.15282      28.762902      24.909402      26.171302      18750.866    
       101   310.83669     -15960.291     -19657.033      26227.157      26432.094     -111630.35     -136.09681     -148.16226      137.14513      28.762902      24.909402      26.171302      18750.866    
       102   310.83669     -15960.291     -19656.958      26227.289      26432.175     -111630.34     -136.05982     -148.18849      137.0641       28.762902      24.909402      26.171302      18750.866    
       103   310.83669     -15960.291     -19656.995      26227.337      26432.224     -111630.55     -136.0398      -148.21073      137.13528      28.762902      24.909402      26.171302      18750.866    
       104   310.83669     -15960.291     -19657.009      26227.293      26432.142     -111630.46     -136.0805      -148.20438      137.24814      28.762902      24.909402      26.171302      18750.866    
       105   310.83669     -15960.291     -19657.034      26227.248      26431.965     -111630.32     -136.09429     -148.21529      137.22222      28.762902      24.909402      26.171302      18750.866    
       106   310.83669     -15960.291     -19657.126      26227.121      26431.927     -111630.42     -136.06967     -148.2197       137.24508      28.762902      24.909402      26.171302      18750.866    
       107   310.83669     -15960.291     -19657.185      26226.999      26431.898     -111630.45     -136.05363     -148.21356      137.23047      28.762902      24.909402      26.171302      18750.866    
       108   310.83669     -15960.291     -19657.17       26226.985      26431.822     -111630.32     -136.0697      -148.19938      137.14791      28.762902      24.909402      26.171302      18750.866    
       109   310.83669     -15960.291     -19657.165      26227          26431.847     -111630.34     -136.0831      -148.18544      137.16304      28.762902      24.909402      26.171302      18750.866    
       110   310.83669     -15960.291     -19657.16       26227.068      26431.913     -111630.46     -136.06263     -148.20359      137.17955      28.762902      24.909402      26.171302      18750.866    
       111   310.83669     -15960.291     -19657.097      26227.151      26431.952     -111630.39     -136.06033     -148.21355      137.15905      28.762902      24.909402      26.171302      18750.866    
       112   310.83669     -15960.291     -19657.042      26227.185      26432.035     -111630.35     -136.08466     -148.19667      137.2067       28.762902      24.909402      26.171302      18750.866    
       113   310.83669     -15960.291     -19657.052      26227.224      26432.076     -111630.46     -136.07332     -148.20818      137.21666      28.762902      24.909402      26.171302      18750.866    
       114   310.83669     -15960.291     -19657.059      26227.229      26432.049     -111630.45     -136.05546     -148.22413      137.20668      28.762902      24.909402      26.171302      18750.866    
       115   310.83669     -15960.291     -19657.06       26227.174      26432.006     -111630.36     -136.07277     -148.20993      137.22936      28.762902      24.909402      26.171302      18750.866    
       116   310.83669     -15960.291     -19657.101      26227.144      26431.949     -111630.4      -136.08235     -148.20222      137.19413      28.762902      24.909402      26.171302      18750.866    
       117   310.83669     -15960.291     -19657.141      26227.095      26431.919     -111630.44     -136.06844     -148.20438      137.16214      28.762902      24.909402      26.171302      18750.866    
       118   310.83669     -15960.291     -19657.139      26227.035      26431.918     -111630.37     -136.06106     -148.20185      137.17545      28.762902      24.909402      26.171302      18750.866    
       119   310.83669     -15960.291     -19657.135      26227.049      26431.903     -111630.36     -136.06876     -148.20087      137.16478      28.762902      24.909402      26.171302      18750.866    
       120   310.83669     -15960.291     -19657.138      26227.087      26431.915     -111630.42     -136.07483     -148.20217      137.17929      28.762902      24.909402      26.171302      18750.866    
       121   310.83669     -15960.291     -19657.117      26227.108      26431.945     -111630.4      -136.06946     -148.20862      137.21087      28.762902      24.909402      26.171302      18750.866    
       122   310.83669     -15960.291     -19657.09       26227.144      26431.961     -111630.38     -136.0668      -148.21372      137.20446      28.762902      24.909402      26.171302      18750.866    
       123   310.83669     -15960.291     -19657.088      26227.162      26431.986     -111630.41     -136.07449     -148.20602      137.19907      28.762902      24.909402      26.171302      18750.866    
       124   310.83669     -15960.291     -19657.088      26227.156      26432.004     -111630.43     -136.0731      -148.20218      137.19663      28.762902      24.909402      26.171302      18750.866    
       125   310.83669     -15960.291     -19657.084      26227.147      26431.991     -111630.39     -136.06387     -148.20693      137.17867      28.762902      24.909402      26.171302      18750.866    
       126   310.83669     -15960.291     -19657.096      26227.131      26431.974     -111630.39     -136.06806     -148.20396      137.18219      28.762902      24.909402      26.171302      18750.866    
       127   310.83669     -15960.291     -19657.114      26227.119      26431.954     -111630.42     -136.07475     -148.2017       137.18951      28.762902      24.909402      26.171302      18750.866    
       128   310.83669     -15960.291     -19657.117      26227.109      26431.933     -111630.39     -136.07056     -148.20705      137.18682      28.762902      24.909402      26.171302      18750.866    
       129   310.83669     -15960.291     -19657.117      26227.094      26431.934     -111630.38     -136.06723     -148.20875      137.19842      28.762902      24.909402      26.171302      18750.866    
       130   310.83669     -15960.291     -19657.121      26227.099      26431.941     -111630.4      -136.07031     -148.207        137.20061      28.762902      24.909402      26.171302      18750.866    
       131   310.83669     -15960.291     -19657.115      26227.116      26431.944     -111630.4      -136.07213     -148.20653      137.19257      28.762902      24.909402      26.171302      18750.866    
       132   310.83669     -15960.291     -19657.102      26227.124      26431.958     -111630.39     -136.07014     -148.20653      137.19654      28.762902      24.909402      26.171302      18750.866    
       133   310.83669     -15960.291     -19657.099      26227.134      26431.969     -111630.4      -136.06874     -148.20682      137.19156      28.762902      24.909402      26.171302      18750.866    
       134   310.83669     -15960.291     -19657.099      26227.142      26431.974     -111630.41     -136.07094     -148.20457      137.18259      28.762902      24.909402      26.171302      18750.866    
       135   310.83669     -15960.291     -19657.096      26227.134      26431.977     -111630.4      -136.07129     -148.20304      137.18623      28.762902      24.909402      26.171302      18750.866    
       136   310.83669     -15960.291     -19657.099      26227.128      26431.97      -111630.4      -136.06807     -148.20605      137.18781      28.762902      24.909402      26.171302      18750.866    
       137   310.83669     -15960.291     -19657.106      26227.126      26431.96      -111630.41     -136.06894     -148.20696      137.19065      28.762902      24.909402      26.171302      18750.866    
       138   310.83669     -15960.291     -19657.109      26227.12       26431.954     -111630.4      -136.07202     -148.2056       137.19637      28.762902      24.909402      26.171302      18750.866    
       139   310.83669     -15960.291     -19657.109      26227.117      26431.948     -111630.39     -136.07089     -148.20667      137.1943       28.762902      24.909402      26.171302      18750.866    
       140   310.83669     -15960.291     -19657.111      26227.116      26431.95      -111630.4      -136.06909     -148.20693      137.19218      28.762902      24.909402      26.171302      18750.866    
       141   310.83669     -15960.291     -19657.11       26227.116      26431.956     -111630.4      -136.07002     -148.20524      137.19167      28.762902      24.909402      26.171302      18750.866    
       142   310.83669     -15960.291     -19657.106      26227.121      26431.957     -111630.4      -136.07056     -148.20489      137.18783      28.762902      24.909402      26.171302      18750.866    
       143   310.83669     -15960.291     -19657.104      26227.125      26431.961     -111630.4      -136.06985     -148.2055       137.18903      28.762902      24.909402      26.171302      18750.866    
       144   310.83669     -15960.291     -19657.104      26227.127      26431.964     -111630.4      -136.06966     -148.20606      137.19212      28.762902      24.909402      26.171302      18750.866    
       145   310.83669     -15960.291     -19657.103      26227.129      26431.963     -111630.4      -136.07044     -148.20618      137.19133      28.762902      24.909402      26.171302      18750.866    
       146   310.83669     -15960.291     -19657.103      26227.127      26431.962     -111630.4      -136.07077     -148.20584      137.19245      28.762902      24.909402      26.171302      18750.866    
       147   310.83669     -15960.291     -19657.105      26227.124      26431.961     -111630.4      -136.0698      -148.20626      137.19316      28.762902      24.909402      26.171302      18750.866    
       148   310.83669     -15960.291     -19657.107      26227.122      26431.958     -111630.4      -136.06958     -148.20644      137.19132      28.762902      24.909402      26.171302      18750.866    
       149   310.83669     -15960.291     -19657.107      26227.12       26431.956     -111630.4      -136.07066     -148.20552      137.19142      28.762902      24.909402      26.171302      18750.866    
       150   310.83669     -15960.291     -19657.108      26227.12       26431.955     -111630.4      -136.0705      -148.20554      137.19085      28.762902      24.909402      26.171302      18750.866    
       151   310.83669     -15960.291     -19657.108      26227.121      26431.956     -111630.4      -136.06955     -148.20609      137.18951      28.762902      24.909402      26.171302      18750.866    
       152   310.83669     -15960.291     -19657.106      26227.121      26431.959     -111630.4      -136.06995     -148.20562      137.19063      28.762902      24.909402      26.171302      18750.866    
       153   310.83669     -15960.291     -19657.105      26227.123      26431.96      -111630.4      -136.07039     -148.20555      137.19083      28.762902      24.909402      26.171302      18750.866    
       154   310.83669     -15960.291     -19657.105      26227.126      26431.96      -111630.4      -136.07006     -148.20611      137.19118      28.762902      24.909402      26.171302      18750.866    
       155   310.83669     -15960.291     -19657.105      26227.126      26431.961     -111630.4      -136.07        -148.20621      137.19289      28.762902      24.909402      26.171302      18750.866    
       156   310.83669     -15960.291     -19657.104      26227.126      26431.96      -111630.4      -136.07032     -148.20604      137.19214      28.762902      24.909402      26.171302      18750.866    
       157   310.83669     -15960.291     -19657.105      26227.125      26431.96      -111630.4      -136.07036     -148.2058       137.19101      28.762902      24.909402      26.171302      18750.866    
       158   310.83669     -15960.291     -19657.106      26227.123      26431.96      -111630.4      -136.06999     -148.20575      137.19128      28.762902      24.909402      26.171302      18750.866    
       159   310.83669     -15960.291     -19657.106      26227.122      26431.958     -111630.4      -136.06984     -148.20591      137.19069      28.762902      24.909402      26.171302      18750.866    
       160   310.83669     -15960.291     -19657.106      26227.122      26431.958     -111630.4      -136.07023     -148.20576      137.19077      28.762902      24.909402      26.171302      18750.866    
       161   310.83669     -15960.291     -19657.107      26227.122      26431.958     -111630.4      -136.07033     -148.20577      137.19157      28.762902      24.909402      26.171302      18750.866    
       162   310.83669     -15960.291     -19657.106      26227.123      26431.958     -111630.4      -136.07002     -148.20608      137.19141      28.762902      24.909402      26.171302      18750.866    
       163   310.83669     -15960.291     -19657.106      26227.123      26431.959     -111630.4      -136.07008     -148.206        137.1915       28.762902      24.909402      26.171302      18750.866    
       164   310.83669     -15960.291     -19657.106      26227.123      26431.96      -111630.4      -136.07027     -148.2058       137.19163      28.762902      24.909402      26.171302      18750.866    
       165   310.83669     -15960.291     -19657.105      26227.124      26431.96      -111630.4      -136.07012     -148.20592      137.19116      28.762902      24.909402      26.171302      18750.866    
       166   310.83669     -15960.291     -19657.105      26227.124      26431.96      -111630.4      -136.07004     -148.20593      137.19125      28.762902      24.909402      26.171302      18750.866    
       167   310.83669     -15960.291     -19657.105      26227.124      26431.96      -111630.4      -136.07017     -148.20583      137.19126      28.762902      24.909402      26.171302      18750.866    
       168   310.83669     -15960.291     -19657.106      26227.124      26431.959     -111630.4      -136.07019     -148.20583      137.19092      28.762902      24.909402      26.171302      18750.866    
       169   310.83669     -15960.291     -19657.106      26227.123      26431.959     -111630.4      -136.0701      -148.20586      137.19117      28.762902      24.909402      26.171302      18750.866    
       170   310.83669     -15960.291     -19657.106      26227.123      26431.959     -111630.4      -136.07005     -148.20591      137.19136      28.762902      24.909402      26.171302      18750.866    
       171   310.83669     -15960.291     -19657.106      26227.123      26431.958     -111630.4      -136.07016     -148.20592      137.19128      28.762902      24.909402      26.171302      18750.866    
       172   310.83669     -15960.291     -19657.106      26227.123      26431.958     -111630.4      -136.07022     -148.20588      137.19153      28.762902      24.909402      26.171302      18750.866    
       173   310.83669     -15960.291     -19657.106      26227.123      26431.959     -111630.4      -136.07011     -148.20593      137.19145      28.762902      24.909402      26.171302      18750.866    
       174   310.83669     -15960.291     -19657.106      26227.123      26431.959     -111630.4      -136.07008     -148.20592      137.19118      28.762902      24.909402      26.171302      18750.866    
       175   310.83669     -15960.291     -19657.106      26227.123      26431.959     -111630.4      -136.07016     -148.20582      137.19122      28.762902      24.909402      26.171302      18750.866    
       176   310.83669     -15960.291     -19657.106      26227.123      26431.959     -111630.4      -136.07014     -148.20585      137.19117      28.762902      24.909402      26.171302      18750.866    
       177   310.83669     -15960.291     -19657.106      26227.124      26431.959     -111630.4      -136.07009     -148.20592      137.19121      28.762902      24.909402      26.171302      18750.866    
       178   310.83669     -15960.291     -19657.106      26227.123      26431.959     -111630.4      -136.07015     -148.20589      137.1914       28.762902      24.909402      26.171302      18750.866    
       179   310.83669     -15960.291     -19657.106      26227.123      26431.959     -111630.4      -136.07018     -148.20589      137.19134      28.762902      24.909402      26.171302      18750.866    
       180   310.83669     -15960.291     -19657.106      26227.123      26431.959     -111630.4      -136.07013     -148.20591      137.1913       28.762902      24.909402      26.171302      18750.866    
       181   310.83669     -15960.291     -19657.106      26227.123      26431.959     -111630.4      -136.07011     -148.2059       137.19136      28.762902      24.909402      26.171302      18750.866    
       182   310.83669     -15960.291     -19657.106      26227.123      26431.959     -111630.4      -136.07013     -148.20588      137.19123      28.762902      24.909402      26.171302      18750.866    
       183   310.83669     -15960.291     -19657.106      26227.123      26431.959     -111630.4      -136.07016     -148.20586      137.19121      28.762902      24.909402      26.171302      18750.866    
       184   310.83669     -15960.291     -19657.106      26227.123      26431.959     -111630.4      -136.07013     -148.20587      137.19128      28.762902      24.909402      26.171302      18750.866    
       185   310.83669     -15960.291     -19657.106      26227.123      26431.959     -111630.4      -136.07011     -148.2059       137.19121      28.762902      24.909402      26.171302      18750.866    
       186   310.83669     -15960.291     -19657.106      26227.123      26431.959     -111630.4      -136.07015     -148.20587      137.19125      28.762902      24.909402      26.171302      18750.866    
       187   310.83669     -15960.291     -19657.106      26227.123      26431.959     -111630.4      -136.07015     -148.20587      137.19134      28.762902      24.909402      26.171302      18750.866    
       188   310.83669     -15960.291     -19657.106      26227.123      26431.959     -111630.4      -136.07011     -148.20592      137.19131      28.762902      24.909402      26.171302      18750.866    
       189   310.83669     -15960.291     -19657.106      26227.123      26431.959     -111630.4      -136.07013     -148.2059       137.19134      28.762902      24.909402      26.171302      18750.866    
       190   310.83669     -15960.291     -19657.106      26227.123      26431.959     -111630.4      -136.07016     -148.20588      137.19132      28.762902      24.909402      26.171302      18750.866    
       191   310.83669     -15960.291     -19657.106      26227.123      26431.959     -111630.4      -136.07013     -148.20588      137.19123      28.762902      24.909402      26.171302      18750.866    
       192   310.83669     -15960.291     -19657.106      26227.123      26431.959     -111630.4      -136.07011     -148.20588      137.19125      28.762902      24.909402      26.171302      18750.866    
       193   310.83669     -15960.291     -19657.106      26227.123      26431.959     -111630.4      -136.07013     -148.20588      137.19126      28.762902      24.909402      26.171302      18750.866    
       194   310.83669     -15960.291     -19657.106      26227.123      26431.959     -111630.4      -136.07014     -148.20588      137.19126      28.762902      24.909402      26.171302      18750.866    
       195   310.83669     -15960.291     -19657.106      26227.123      26431.959     -111630.4      -136.07014     -148.20589      137.19132      28.762902      24.909402      26.171302      18750.866    
       196   310.83669     -15960.291     -19657.106      26227.123      26431.959     -111630.4      -136.07013     -148.2059       137.19132      28.762902      24.909402      26.171302      18750.866    
       197   310.83669     -15960.291     -19657.106      26227.123      26431.959     -111630.4      -136.07014     -148.20589      137.19128      28.762902      24.909402      26.171302      18750.866    
       198   310.83669     -15960.291     -19657.106      26227.123      26431.959     -111630.4      -136.07014     -148.20588      137.19129      28.762902      24.909402      26.171302      18750.866    
       199   310.83669     -15960.291     -19657.106      26227.123      26431.959     -111630.4      -136.07013     -148.20589      137.19127      28.762902      24.909402      26.171302      18750.866    
       200   310.83669     -15960.291     -19657.106      26227.123      26431.959     -111630.4      -136.07013     -148.20589      137.19126      28.762902      24.909402      26.171302      18750.866    
       201   310.83669     -15960.291     -19657.106      26227.123      26431.959     -111630.4      -136.07014     -148.20588      137.19128      28.762902      24.909402      26.171302      18750.866    
       202   310.83669     -15960.291     -19657.106      26227.123      26431.959     -111630.4      -136.07014     -148.20588      137.19127      28.762902      24.909402      26.171302      18750.866    
       203   310.83669     -15960.291     -19657.106      26227.123      26431.959     -111630.4      -136.07013     -148.20589      137.19128      28.762902      24.909402      26.171302      18750.866    
       204   310.83669     -15960.291     -19657.106      26227.123      26431.959     -111630.4      -136.07013     -148.20589      137.1913       28.762902      24.909402      26.171302      18750.866    
       205   310.83669     -15960.291     -19657.106      26227.123      26431.959     -111630.4      -136.07014     -148.20589      137.19129      28.762902      24.909402      26.171302      18750.866    
       206   310.83669     -15960.291     -19657.106      26227.123      26431.959     -111630.4      -136.07013     -148.20589      137.19129      28.762902      24.909402      26.171302      18750.866    
       207   310.83669     -15960.291     -19657.106      26227.123      26431.959     -111630.4      -136.07013     -148.20589      137.19129      28.762902      24.909402      26.171302      18750.866    
       208   310.83669     -15960.291     -19657.106      26227.123      26431.959     -111630.4      -136.07013     -148.20589      137.19127      28.762902      24.909402      26.171302      18750.866    
       209   310.83669     -15960.291     -19657.106      26227.123      26431.959     -111630.4      -136.07013     -148.20588      137.19128      28.762902      24.909402      26.171302      18750.866    
       210   310.83669     -15960.291     -19657.106      26227.123      26431.959     -111630.4      -136.07013     -148.20589      137.19128      28.762902      24.909402      26.171302      18750.866    
       211   310.83669     -15960.291     -19657.106      26227.123      26431.959     -111630.4      -136.07013     -148.20589      137.19128      28.762902      24.909402      26.171302      18750.866    
       212   310.83669     -15960.291     -19657.106      26227.123      26431.959     -111630.4      -136.07014     -148.20589      137.19129      28.762902      24.909402      26.171302      18750.866    
       213   310.83669     -15960.291     -19657.106      26227.123      26431.959     -111630.4      -136.07013     -148.20589      137.19129      28.762902      24.909402      26.171302      18750.866    
       214   310.83669     -15960.291     -19657.106      26227.123      26431.959     -111630.4      -136.07013     -148.20589      137.19128      28.762902      24.909402      26.171302      18750.866    
       215   310.83669     -15960.291     -19657.106      26227.123      26431.959     -111630.4      -136.07013     -148.20589      137.19128      28.762902      24.909402      26.171302      18750.866    
       216   310.83669     -15960.291     -19657.106      26227.123      26431.959     -111630.4      -136.07013     -148.20588      137.19128      28.762902      24.909402      26.171302      18750.866    
       217   310.83669     -15960.291     -19657.106      26227.123      26431.959     -111630.4      -136.07013     -148.20589      137.19128      28.762902      24.909402      26.171302      18750.866    
       218   310.83669     -15960.291     -19657.106      26227.123      26431.959     -111630.4      -136.07013     -148.20589      137.19128      28.762902      24.909402      26.171302      18750.866    
       219   310.83669     -15960.291     -19657.106      26227.123      26431.959     -111630.4      -136.07013     -148.20589      137.19128      28.762902      24.909402      26.171302      18750.866    
       220   310.83669     -15960.291     -19657.106      26227.123      26431.959     -111630.4      -136.07013     -148.20589      137.19128      28.762902      24.909402      26.171302      18750.866    
       221   310.83669     -15960.291     -19657.106      26227.123      26431.959     -111630.4      -136.07013     -148.20589      137.19128      28.762902      24.909402      26.171302      18750.866    
       222   310.83669     -15960.291     -19657.106      26227.123      26431.959     -111630.4      -136.07013     -148.20589      137.19128      28.762902      24.909402      26.171302      18750.866    
       223   310.83669     -15960.291     -19657.106      26227.123      26431.959     -111630.4      -136.07013     -148.20589      137.19128      28.762902      24.909402      26.171302      18750.866    
       224   310.83669     -15960.291     -19657.106      26227.123      26431.959     -111630.4      -136.07013     -148.20589      137.19128      28.762902      24.909402      26.171302      18750.866    
       225   310.83669     -15960.291     -19657.106      26227.123      26431.959     -111630.4      -136.07013     -148.20589      137.19128      28.762902      24.909402      26.171302      18750.866    
       226   310.83669     -15960.291     -19657.106      26227.123      26431.959     -111630.4      -136.07013     -148.20589      137.19128      28.762902      24.909402      26.171302      18750.866    
       227   310.83669     -15960.291     -19657.106      26227.123      26431.959     -111630.4      -136.07013     -148.20589      137.19128      28.762902      24.909402      26.171302      18750.866    
       228   310.83669     -15960.291     -19657.106      26227.123      26431.959     -111630.4      -136.07013     -148.20589      137.19128      28.762902      24.909402      26.171302      18750.866    
       229   310.83669     -15960.291     -19657.106      26227.123      26431.959     -111630.4      -136.07013     -148.20589      137.19128      28.762902      24.909402      26.171302      18750.866    
       230   310.83669     -15960.291     -19657.106      26227.123      26431.959     -111630.4      -136.07013     -148.20589      137.19128      28.762902      24.909402      26.171302      18750.866    
       231   310.83669     -15960.291     -19657.106      26227.123      26431.959     -111630.4      -136.07013     -148.20589      137.19128      28.762902      24.909402      26.171302      18750.866    
       232   310.83669     -15960.291     -19657.106      26227.123      26431.959     -111630.4      -136.07013     -148.20589      137.19128      28.762902      24.909402      26.171302      18750.866    
       233   310.83669     -15960.291     -19657.106      26227.123      26431.959     -111630.4      -136.07013     -148.20589      137.19128      28.762902      24.909402      26.171302      18750.866    
       234   310.83669     -15960.291     -19657.106      26227.123      26431.959     -111630.4      -136.07013     -148.20589      137.19128      28.762902      24.909402      26.171302      18750.866    
       235   310.83669     -15960.291     -19657.106      26227.123      26431.959     -111630.4      -136.07013     -148.20589      137.19128      28.762902      24.909402      26.171302      18750.866    
       236   310.83669     -15960.291     -19657.106      26227.123      26431.959     -111630.4      -136.07013     -148.20589      137.19128      28.762902      24.909402      26.171302      18750.866    
       237   310.83669     -15960.291     -19657.106      26227.123      26431.959     -111630.4      -136.07013     -148.20589      137.19128      28.762902      24.909402      26.171302      18750.866    
       238   310.83669     -15960.291     -19657.106      26227.123      26431.959     -111630.4      -136.07013     -148.20589      137.19128      28.762902      24.909402      26.171302      18750.866    
       239   310.83669     -15960.291     -19657.106      26227.123      26431.959     -111630.4      -136.07013     -148.20589      137.19128      28.762902      24.909402      26.171302      18750.866    
       240   310.83669     -15960.291     -19657.106      26227.123      26431.959     -111630.4      -136.07013     -148.20589      137.19128      28.762902      24.909402      26.171302      18750.866    
       241   310.83669     -15960.291     -19657.106      26227.123      26431.959     -111630.4      -136.07013     -148.20589      137.19128      28.762902      24.909402      26.171302      18750.866    
       242   310.83669     -15960.291     -19657.106      26227.123      26431.959     -111630.4      -136.07013     -148.20589      137.19128      28.762902      24.909402      26.171302      18750.866    
       243   310.83669     -15960.291     -19657.106      26227.123      26431.959     -111630.4      -136.07013     -148.20589      137.19128      28.762902      24.909402      26.171302      18750.866    
       244   310.83669     -15960.291     -19657.106      26227.123      26431.959     -111630.4      -136.07013     -148.20589      137.19128      28.762902      24.909402      26.171302      18750.866    
       245   310.83669     -15960.291     -19657.106      26227.123      26431.959     -111630.4      -136.07013     -148.20589      137.19128      28.762902      24.909402      26.171302      18750.866    
       246   310.83669     -15960.291     -19657.106      26227.123      26431.959     -111630.4      -136.07013     -148.20589      137.19128      28.762902      24.909402      26.171302      18750.866    
       247   310.83669     -15960.291     -19657.106      26227.123      26431.959     -111630.4      -136.07013     -148.20589      137.19128      28.762902      24.909402      26.171302      18750.866    
       248   310.83669     -15960.291     -19657.106      26227.123      26431.959     -111630.4      -136.07013     -148.20589      137.19128      28.762902      24.909402      26.171302      18750.866    
       249   310.83669     -15960.291     -19657.106      26227.123      26431.959     -111630.4      -136.07013     -148.20589      137.19128      28.762902      24.909402      26.171302      18750.866    
       250   310.83669     -15960.291     -19657.106      26227.123      26431.959     -111630.4      -136.07013     -148.20589      137.19128      28.762902      24.909402      26.171302      18750.866    
       251   310.83669     -15960.291     -19657.106      26227.123      26431.959     -111630.4      -136.07013     -148.20589      137.19128      28.762902      24.909402      26.171302      18750.866    
       252   310.83669     -15960.291     -19657.106      26227.123      26431.959     -111630.4      -136.07013     -148.20589      137.19128      28.762902      24.909402      26.171302      18750.866    
       253   310.83669     -15960.291     -19657.106      26227.123      26431.959     -111630.4      -136.07013     -148.20589      137.19128      28.762902      24.909402      26.171302      18750.866    
       254   310.83669     -15960.291     -19657.106      26227.123      26431.959     -111630.4      -136.07013     -148.20589      137.19128      28.762902      24.909402      26.171302      18750.866    
       255   310.83669     -15960.291     -19657.106      26227.123      26431.959     -111630.4      -136.07013     -148.20589      137.19128      28.762902      24.909402      26.171302      18750.866    
       256   310.83669     -15960.291     -19657.106      26227.123      26431.959     -111630.4      -136.07013     -148.20589      137.19128      28.762902      24.909402      26.171302      18750.866    
       257   310.83669     -15960.291     -19657.106      26227.123      26431.959     -111630.4      -136.07013     -148.20589      137.19128      28.762902      24.909402      26.171302      18750.866    
       258   310.83669     -15960.291     -19657.106      26227.123      26431.959     -111630.4      -136.07013     -148.20589      137.19128      28.762902      24.909402      26.171302      18750.866    
       259   310.83669     -15960.291     -19657.106      26227.123      26431.959     -111630.4      -136.07013     -148.20589      137.19128      28.762902      24.909402      26.171302      18750.866    
       260   310.83669     -15960.291     -19657.106      26227.123      26431.959     -111630.4      -136.07013     -148.20589      137.19128      28.762902      24.909402      26.171302      18750.866    
       261   310.83669     -15960.291     -19657.106      26227.123      26431.959     -111630.4      -136.07013     -148.20589      137.19128      28.762902      24.909402      26.171302      18750.866    
       262   310.83669     -15960.291     -19657.106      26227.123      26431.959     -111630.4      -136.07013     -148.20589      137.19128      28.762902      24.909402      26.171302      18750.866    
       263   310.83669     -15960.291     -19657.106      26227.123      26431.959     -111630.4      -136.07013     -148.20589      137.19128      28.762902      24.909402      26.171302      18750.866    
       264   310.83669     -15960.291     -19657.106      26227.123      26431.959     -111630.4      -136.07013     -148.20589      137.19128      28.762902      24.909402      26.171302      18750.866    
       265   310.83669     -15960.291     -19657.106      26227.123      26431.959     -111630.4      -136.07013     -148.20589      137.19128      28.762902      24.909402      26.171302      18750.866    
       266   310.83669     -15960.291     -19657.106      26227.123      26431.959     -111630.4      -136.07013     -148.20589      137.19128      28.762902      24.909402      26.171302      18750.866    
       267   310.83669     -15960.291     -19657.106      26227.123      26431.959     -111630.4      -136.07013     -148.20589      137.19128      28.762902      24.909402      26.171302      18750.866    
       268   310.83669     -15960.291     -19657.106      26227.123      26431.959     -111630.4      -136.07013     -148.20589      137.19128      28.762902      24.909402      26.171302      18750.866    
       269   310.83669     -15960.291     -19657.106      26227.123      26431.959     -111630.4      -136.07013     -148.20589      137.19128      28.762902      24.909402      26.171302      18750.866    
       270   310.83669     -15960.291     -19657.106      26227.123      26431.959     -111630.4      -136.07013     -148.20589      137.19128      28.762902      24.909402      26.171302      18750.866    
       271   310.83669     -15960.291     -19657.106      26227.123      26431.959     -111630.4      -136.07013     -148.20589      137.19128      28.762902      24.909402      26.171302      18750.866    
       272   310.83669     -15960.291     -19657.106      26227.123      26431.959     -111630.4      -136.07013     -148.20589      137.19128      28.762902      24.909402      26.171302      18750.866    
       273   310.83669     -15960.291     -19657.106      26227.123      26431.959     -111630.4      -136.07013     -148.20589      137.19128      28.762902      24.909402      26.171302      18750.866    
       274   310.83669     -15960.291     -19657.106      26227.123      26431.959     -111630.4      -136.07013     -148.20589      137.19128      28.762902      24.909402      26.171302      18750.866    
       275   310.83669     -15960.291     -19657.106      26227.123      26431.959     -111630.4      -136.07013     -148.20589      137.19128      28.762902      24.909402      26.171302      18750.866    
       276   310.83669     -15960.291     -19657.106      26227.123      26431.959     -111630.4      -136.07013     -148.20589      137.19128      28.762902      24.909402      26.171302      18750.866    
       277   310.83669     -15960.291     -19657.106      26227.123      26431.959     -111630.4      -136.07013     -148.20589      137.19128      28.762902      24.909402      26.171302      18750.866    
       278   310.83669     -15960.291     -19657.106      26227.123      26431.959     -111630.4      -136.07013     -148.20589      137.19128      28.762902      24.909402      26.171302      18750.866    
       279   310.83669     -15960.291     -19657.106      26227.123      26431.959     -111630.4      -136.07013     -148.20589      137.19128      28.762902      24.909402      26.171302      18750.866    
       280   310.83669     -15960.291     -19657.106      26227.123      26431.959     -111630.4      -136.07013     -148.20589      137.19128      28.762902      24.909402      26.171302      18750.866    
       281   310.83669     -15960.291     -19657.106      26227.123      26431.959     -111630.4      -136.07013     -148.20589      137.19128      28.762902      24.909402      26.171302      18750.866    
       282   310.83669     -15960.291     -19657.106      26227.123      26431.959     -111630.4      -136.07013     -148.20589      137.19128      28.762902      24.909402      26.171302      18750.866    
       283   310.83669     -15960.291     -19657.106      26227.123      26431.959     -111630.4      -136.07013     -148.20589      137.19128      28.762902      24.909402      26.171302      18750.866    
       284   310.83669     -15960.291     -19657.106      26227.123      26431.959     -111630.4      -136.07013     -148.20589      137.19128      28.762902      24.909402      26.171302      18750.866    
       285   310.83669     -15960.291     -19657.106      26227.123      26431.959     -111630.4      -136.07013     -148.20589      137.19128      28.762902      24.909402      26.171302      18750.866    
       286   310.83669     -15960.291     -19657.106      26227.123      26431.959     -111630.4      -136.07013     -148.20589      137.19128      28.762902      24.909402      26.171302      18750.866    
       287   310.83669     -15960.291     -19657.106      26227.123      26431.959     -111630.4      -136.07013     -148.20589      137.19128      28.762902      24.909402      26.171302      18750.866    
       288   310.83669     -15960.291     -19657.106      26227.123      26431.959     -111630.4      -136.07013     -148.20589      137.19128      28.762902      24.909402      26.171302      18750.866    
       289   310.83669     -15960.291     -19657.106      26227.123      26431.959     -111630.4      -136.07013     -148.20589      137.19128      28.762902      24.909402      26.171302      18750.866    
Loop time of 1.4628 on 6 procs for 289 steps with 2160 atoms

99.7% CPU use with 6 MPI tasks x 1 OpenMP threads

Minimization stats:
  Stopping criterion = force tolerance
  Energy initial, next-to-last, final = 
     -15876.4988085494  -15960.2905070862  -15960.2905070862
  Force two-norm initial, final = 59.269654 9.7766911e-11
  Force max component initial, final = 2.7018775 4.6125326e-12
  Final line search alpha, max atom move = 1 4.6125326e-12
  Iterations, force evaluations = 289 548

MPI task timing breakdown:
Section |  min time  |  avg time  |  max time  |%varavg| %total
---------------------------------------------------------------
Pair    | 1.1859     | 1.2345     | 1.2947     |   3.0 | 84.39
Neigh   | 0          | 0          | 0          |   0.0 |  0.00
Comm    | 0.13745    | 0.19759    | 0.24611    |   7.6 | 13.51
Output  | 0.010642   | 0.012251   | 0.013026   |   0.7 |  0.84
Modify  | 0          | 0          | 0          |   0.0 |  0.00
Other   |            | 0.01843    |            |       |  1.26

Nlocal:            360 ave         364 max         356 min
Histogram: 1 0 0 1 0 2 1 0 0 1
Nghost:        2992.67 ave        2999 max        2978 min
Histogram: 1 0 0 1 0 0 0 0 0 4
Neighs:              0 ave           0 max           0 min
Histogram: 6 0 0 0 0 0 0 0 0 0
FullNghs:      26484.7 ave       26776 max       26178 min
Histogram: 1 0 0 0 1 2 1 0 0 1

Total # of neighbors = 158908
Ave neighs/atom = 73.568519
Neighbor list builds = 0
Dangerous builds = 0


dump   1 all atom 1 generic.lammpstrj


# Compute initial state
fix 3 all box/relax  aniso 0.0
minimize ${etol} ${ftol} ${maxiter} ${maxeval}
minimize 0 ${ftol} ${maxiter} ${maxeval}
minimize 0 1e-10 ${maxiter} ${maxeval}
minimize 0 1e-10 100 ${maxeval}
minimize 0 1e-10 100 1000
Per MPI rank memory allocation (min/avg/max) = 6.833 | 6.834 | 6.835 Mbytes
   Step          Temp          PotEng         Press           Pxx            Pyy            Pzz            Pxy            Pxz            Pyz             Lx             Ly             Lz           Volume    
       289   310.83669     -15960.291     -19657.106      26227.123      26431.959     -111630.4      -136.07013     -148.20589      137.19128      28.762902      24.909402      26.171302      18750.866    
       290   310.83669     -15960.436     -19538.737      26289.242      26494.089     -111399.54     -136.07851     -148.21528      137.19995      28.763429      24.909859      26.168685      18749.679    
       291   310.83669     -15960.581     -19420.94       26350.557      26555.417     -111168.79     -136.08686     -148.22466      137.20859      28.76396       24.910318      26.166068      18748.495    
       292   310.83669     -15960.726     -19303.71       26411.075      26615.947     -110938.15     -136.09519     -148.234        137.21722      28.764492      24.910779      26.163451      18747.314    
       293   310.83669     -15960.871     -19187.047      26470.797      26675.682     -110707.62     -136.1035      -148.24333      137.22582      28.765028      24.911243      26.160834      18746.136    
       294   310.83669     -15961.016     -19070.947      26529.728      26734.625     -110477.19     -136.11179     -148.25263      137.2344       28.765565      24.911708      26.158217      18744.962    
       295   310.83669     -15961.161     -18955.406      26587.871      26792.779     -110246.87     -136.12006     -148.26191      137.24295      28.766105      24.912176      26.1556        18743.79     
       296   310.83669     -15961.305     -18840.421      26645.229      26850.15      -110016.64     -136.12831     -148.27117      137.25149      28.766648      24.912646      26.152983      18742.622    
       297   310.83669     -15961.449     -18725.989      26701.806      26906.738     -109786.51     -136.13653     -148.2804       137.26001      28.767193      24.913118      26.150365      18741.457    
       298   310.83669     -15961.593     -18612.105      26757.605      26962.549     -109556.47     -136.14474     -148.28961      137.2685       28.767741      24.913592      26.147748      18740.294    
       299   310.83669     -15961.737     -18498.769      26812.627      27017.583     -109326.52     -136.15292     -148.2988       137.27697      28.768291      24.914069      26.145131      18739.135    
       300   310.83669     -15961.88      -18385.982      26866.876      27071.844     -109096.67     -136.16109     -148.30796      137.28542      28.768843      24.914547      26.142514      18737.979    
       301   310.83669     -15962.024     -18273.74       26920.356      27125.336     -108866.91     -136.16923     -148.3171       137.29385      28.769398      24.915028      26.139897      18736.826    
       302   310.83669     -15962.167     -18162.039      26973.071      27178.062     -108637.25     -136.17736     -148.32622      137.30226      28.769955      24.91551       26.13728       18735.675    
       303   310.83669     -15962.31      -18050.874      27025.023      27230.026     -108407.67     -136.18546     -148.33532      137.31065      28.770515      24.915995      26.134663      18734.528    
       304   310.83669     -15962.452     -17940.241      27076.217      27281.232     -108178.17     -136.19354     -148.34439      137.31902      28.771076      24.916481      26.132046      18733.384    
       305   310.83669     -15962.595     -17830.134      27126.659      27331.686     -107948.75     -136.20161     -148.35344      137.32736      28.771641      24.91697       26.129428      18732.242    
       306   310.83669     -15962.737     -17720.555      27176.35       27381.388     -107719.4      -136.20965     -148.36247      137.33569      28.772207      24.917461      26.126811      18731.104    
       307   310.83669     -15962.879     -17611.501      27225.292      27430.342     -107490.14     -136.21767     -148.37148      137.344        28.772776      24.917953      26.124194      18729.968    
       308   310.83669     -15963.021     -17502.966      27273.489      27478.551     -107260.94     -136.22568     -148.38046      137.35228      28.773348      24.918448      26.121577      18728.836    
       309   310.83669     -15963.163     -17394.95       27320.944      27526.018     -107031.81     -136.23366     -148.38943      137.36055      28.773921      24.918945      26.11896       18727.706    
       310   310.83669     -15963.305     -17287.449      27367.661      27572.746     -106802.75     -136.24162     -148.39837      137.36879      28.774497      24.919444      26.116343      18726.579    
       311   310.83669     -15963.446     -17180.461      27413.643      27618.739     -106573.76     -136.24957     -148.40729      137.37702      28.775075      24.919945      26.113726      18725.455    
       312   310.83669     -15963.587     -17073.98       27458.895      27664.003     -106344.84     -136.25749     -148.41619      137.38522      28.775656      24.920447      26.111108      18724.334    
       313   310.83669     -15963.728     -16968.003      27503.423      27708.542     -106115.97     -136.2654      -148.42507      137.39341      28.776239      24.920952      26.108491      18723.215    
       314   310.83669     -15963.869     -16862.528      27547.229      27752.359     -105887.17     -136.27329     -148.43392      137.40158      28.776824      24.921459      26.105874      18722.1      
       315   310.83669     -15964.009     -16757.552      27590.317      27795.459     -105658.43     -136.28116     -148.44276      137.40972      28.777411      24.921967      26.103257      18720.987    
       316   310.83669     -15964.15      -16653.072      27632.689      27837.843     -105429.75     -136.289       -148.45157      137.41785      28.778001      24.922478      26.10064       18719.877    
       317   310.83669     -15964.29      -16549.083      27674.351      27879.516     -105201.12     -136.29683     -148.46037      137.42596      28.778593      24.922991      26.098023      18718.77     
       318   310.83669     -15964.43      -16445.582      27715.305      27920.481     -104972.53     -136.30464     -148.46914      137.43404      28.779187      24.923505      26.095406      18717.666    
       319   310.83669     -15964.57      -16342.57       27755.55       27960.737     -104744        -136.31244     -148.47789      137.44211      28.779783      24.924021      26.092789      18716.564    
       320   310.83669     -15964.709     -16240.038      27795.094      28000.293     -104515.5      -136.32021     -148.48662      137.45016      28.780382      24.92454       26.090171      18715.465    
       321   310.83669     -15964.848     -16137.985      27833.942      28039.152     -104287.05     -136.32797     -148.49533      137.45819      28.780982      24.92506       26.087554      18714.369    
       322   310.83669     -15964.988     -16036.406      27872.096      28077.317     -104058.63     -136.3357      -148.50402      137.4662       28.781585      24.925582      26.084937      18713.276    
       323   310.83669     -15965.127     -15935.299      27909.56       28114.792     -103830.25     -136.34342     -148.51269      137.47419      28.78219       24.926106      26.08232       18712.185    
       324   310.83669     -15965.265     -15834.662      27946.337      28151.58      -103601.9      -136.35112     -148.52134      137.48217      28.782797      24.926632      26.079703      18711.097    
       325   310.83669     -15965.404     -15734.491      27982.43       28187.685     -103373.59     -136.3588      -148.52997      137.49012      28.783407      24.92716       26.077086      18710.011    
       326   310.83669     -15965.542     -15634.786      28017.841      28223.107     -103145.31     -136.36647     -148.53857      137.49806      28.784019      24.92769       26.074469      18708.929    
       327   310.83669     -15965.68      -15535.553      28052.568      28257.845     -102917.07     -136.37411     -148.54716      137.50597      28.784632      24.928221      26.071852      18707.849    
       328   310.83669     -15965.818     -15436.787      28086.615      28291.903     -102688.88     -136.38174     -148.55573      137.51387      28.785248      24.928754      26.069234      18706.771    
       329   310.83669     -15965.956     -15338.481      28119.984      28325.283     -102460.71     -136.38935     -148.56428      137.52175      28.785866      24.92929       26.066617      18705.696    
       330   310.83669     -15966.093     -15240.633      28152.679      28357.989     -102232.57     -136.39694     -148.57281      137.52962      28.786486      24.929827      26.064         18704.624    
       331   310.83669     -15966.231     -15143.239      28184.703      28390.025     -102004.45     -136.40452     -148.58132      137.53746      28.787108      24.930366      26.061383      18703.554    
       332   310.83669     -15966.368     -15046.299      28216.06       28421.392     -101776.35     -136.41207     -148.58981      137.54528      28.787733      24.930906      26.058766      18702.487    
       333   310.83669     -15966.505     -14949.808      28246.754      28452.097     -101548.27     -136.41961     -148.59828      137.55309      28.788359      24.931449      26.056149      18701.423    
       334   310.83669     -15966.641     -14853.76       28276.792      28482.146     -101320.22     -136.42713     -148.60673      137.56088      28.788988      24.931993      26.053532      18700.361    
       335   310.83669     -15966.778     -14758.155      28306.174      28511.539     -101092.18     -136.43464     -148.61516      137.56865      28.789618      24.932539      26.050914      18699.302    
       336   310.83669     -15966.914     -14662.989      28334.903      28540.279     -100864.15     -136.44212     -148.62357      137.57641      28.790251      24.933087      26.048297      18698.245    
       337   310.83669     -15967.05      -14568.26       28362.983      28568.369     -100636.13     -136.44959     -148.63196      137.58414      28.790885      24.933637      26.04568       18697.19     
       338   310.83669     -15967.186     -14473.964      28390.416      28595.814     -100408.12     -136.45705     -148.64034      137.59186      28.791522      24.934188      26.043063      18696.139    
       339   310.83669     -15967.321     -14380.098      28417.207      28622.615     -100180.12     -136.46448     -148.64869      137.59956      28.792161      24.934741      26.040446      18695.089    
       340   310.83669     -15967.457     -14286.661      28443.357      28648.776     -99952.117     -136.4719      -148.65703      137.60725      28.792802      24.935296      26.037829      18694.042    
       341   310.83669     -15967.592     -14193.648      28468.872      28674.301     -99724.118     -136.47931     -148.66535      137.61491      28.793445      24.935853      26.035212      18692.998    
       342   310.83669     -15967.727     -14101.056      28493.754      28699.194     -99496.116     -136.48669     -148.67364      137.62256      28.794089      24.936411      26.032595      18691.956    
       343   310.83669     -15967.862     -14008.883      28518.007      28723.459     -99268.115     -136.49406     -148.68192      137.63019      28.794736      24.936971      26.029977      18690.917    
       344   310.83669     -15967.996     -13917.128      28541.635      28747.096     -99040.117     -136.50141     -148.69019      137.63781      28.795385      24.937533      26.02736       18689.88     
       345   310.83669     -15968.131     -13825.787      28564.639      28770.111     -98812.112     -136.50875     -148.69843      137.64541      28.796036      24.938097      26.024743      18688.845    
       346   310.83669     -15968.265     -13734.856      28587.023      28792.506     -98584.097     -136.51607     -148.70665      137.65299      28.796688      24.938662      26.022126      18687.813    
[...]
       450   310.83669     -15974.553     -7867.1231      36858.949      37064.896     -97525.214     -138.36462     -148.55835      137.9537       28.826509      24.964488      25.909589      18645.552    
       451   310.83669     -15974.553     -7867.1231      36858.949      37064.896     -97525.214     -138.36461     -148.55834      137.95369      28.826509      24.964488      25.909589      18645.552    
       452   310.83669     -15974.553     -7867.1232      36858.949      37064.896     -97525.214     -138.36462     -148.55834      137.9537       28.826509      24.964488      25.909589      18645.552    
       453   310.83669     -15974.553     -7867.1232      36858.949      37064.896     -97525.214     -138.36462     -148.55835      137.95369      28.826509      24.964488      25.909589      18645.552    
       454   310.83669     -15974.553     -7867.1232      36858.949      37064.896     -97525.214     -138.36462     -148.55835      137.95369      28.826509      24.964488      25.909589      18645.552    
       455   310.83669     -15974.553     -7867.1231      36858.949      37064.896     -97525.214     -138.36462     -148.55834      137.95369      28.826509      24.964488      25.909589      18645.552    
       456   310.83669     -15974.553     -7867.1231      36858.949      37064.896     -97525.214     -138.36462     -148.55834      137.9537       28.826509      24.964488      25.909589      18645.552    
       457   310.83669     -15974.553     -7867.1231      36858.949      37064.896     -97525.214     -138.36462     -148.55834      137.95369      28.826509      24.964488      25.909589      18645.552    
       458   310.83669     -15974.553     -7867.1231      36858.949      37064.896     -97525.214     -138.36462     -148.55834      137.95369      28.826509      24.964488      25.909589      18645.552    
       459   310.83669     -15974.553     -7867.1231      36858.949      37064.896     -97525.214     -138.36462     -148.55834      137.95369      28.826509      24.964488      25.909589      18645.552    
       460   310.83669     -15974.553     -7867.1231      36858.949      37064.896     -97525.214     -138.36462     -148.55834      137.95369      28.826509      24.964488      25.909589      18645.552    
       461   310.83669     -15974.553     -7867.1231      36858.949      37064.896     -97525.214     -138.36462     -148.55834      137.95369      28.826509      24.964488      25.909589      18645.552    
       462   310.83669     -15974.553     -7867.1231      36858.949      37064.896     -97525.214     -138.36462     -148.55834      137.95369      28.826509      24.964488      25.909589      18645.552    
       463   310.83669     -15974.553     -7867.1231      36858.949      37064.896     -97525.214     -138.36462     -148.55834      137.95369      28.826509      24.964488      25.909589      18645.552    
       464   310.83669     -15974.553     -7867.1231      36858.949      37064.896     -97525.214     -138.36462     -148.55834      137.95369      28.826509      24.964488      25.909589      18645.552    
       465   310.83669     -15974.553     -7867.1231      36858.949      37064.896     -97525.214     -138.36462     -148.55834      137.95369      28.826509      24.964488      25.909589      18645.552    
       466   310.83669     -15974.553     -7867.1231      36858.949      37064.896     -97525.214     -138.36462     -148.55834      137.95369      28.826509      24.964488      25.909589      18645.552    
       467   310.83669     -15974.553     -7867.1231      36858.949      37064.896     -97525.214     -138.36462     -148.55834      137.95369      28.826509      24.964488      25.909589      18645.552    
       468   310.83669     -15974.553     -7867.1231      36858.949      37064.896     -97525.214     -138.36462     -148.55834      137.95369      28.826509      24.964488      25.909589      18645.552    
       469   310.83669     -15974.553     -7867.1231      36858.949      37064.896     -97525.214     -138.36462     -148.55834      137.95369      28.826509      24.964488      25.909589      18645.552    
       470   310.83669     -15974.553     -7867.1231      36858.949      37064.896     -97525.214     -138.36462     -148.55834      137.95369      28.826509      24.964488      25.909589      18645.552    
       471   310.83669     -15974.553     -7867.1231      36858.949      37064.896     -97525.214     -138.36462     -148.55834      137.95369      28.826509      24.964488      25.909589      18645.552    
       472   310.83669     -15974.553     -7867.1231      36858.949      37064.896     -97525.214     -138.36462     -148.55834      137.95369      28.826509      24.964488      25.909589      18645.552    
       473   310.83669     -15974.553     -7867.1231      36858.949      37064.896     -97525.214     -138.36462     -148.55834      137.95369      28.826509      24.964488      25.909589      18645.552    
       474   310.83669     -15974.553     -7867.1231      36858.949      37064.896     -97525.214     -138.36462     -148.55834      137.95369      28.826509      24.964488      25.909589      18645.552    
       475   310.83669     -15974.553     -7867.1231      36858.949      37064.896     -97525.214     -138.36462     -148.55834      137.95369      28.826509      24.964488      25.909589      18645.552    
       476   310.83669     -15974.553     -7867.1231      36858.949      37064.896     -97525.214     -138.36462     -148.55834      137.95369      28.826509      24.964488      25.909589      18645.552    
       477   310.83669     -15974.553     -7867.1231      36858.949      37064.896     -97525.214     -138.36462     -148.55834      137.95369      28.826509      24.964488      25.909589      18645.552    
       478   310.83669     -15974.553     -7867.1231      36858.949      37064.896     -97525.214     -138.36462     -148.55834      137.95369      28.826509      24.964488      25.909589      18645.552    
       479   310.83669     -15974.553     -7867.1231      36858.949      37064.896     -97525.214     -138.36462     -148.55834      137.95369      28.826509      24.964488      25.909589      18645.552    
       480   310.83669     -15974.553     -7867.1231      36858.949      37064.896     -97525.214     -138.36462     -148.55834      137.95369      28.826509      24.964488      25.909589      18645.552    
       481   310.83669     -15974.553     -7867.1231      36858.949      37064.896     -97525.214     -138.36462     -148.55834      137.95369      28.826509      24.964488      25.909589      18645.552    
       482   310.83669     -15974.553     -7867.1231      36858.949      37064.896     -97525.214     -138.36462     -148.55834      137.95369      28.826509      24.964488      25.909589      18645.552    
       483   310.83669     -15974.553     -7867.1231      36858.949      37064.896     -97525.214     -138.36462     -148.55834      137.95369      28.826509      24.964488      25.909589      18645.552    
       484   310.83669     -15974.553     -7867.1231      36858.949      37064.896     -97525.214     -138.36462     -148.55834      137.95369      28.826509      24.964488      25.909589      18645.552    
       485   310.83669     -15974.553     -7867.1231      36858.949      37064.896     -97525.214     -138.36462     -148.55834      137.95369      28.826509      24.964488      25.909589      18645.552    
       486   310.83669     -15974.553     -7867.1231      36858.949      37064.896     -97525.214     -138.36462     -148.55834      137.95369      28.826509      24.964488      25.909589      18645.552    
       487   310.83669     -15974.553     -7867.1231      36858.949      37064.896     -97525.214     -138.36462     -148.55834      137.95369      28.826509      24.964488      25.909589      18645.552    
       488   310.83669     -15974.553     -7867.1231      36858.949      37064.896     -97525.214     -138.36462     -148.55834      137.95369      28.826509      24.964488      25.909589      18645.552    
       489   310.83669     -15974.553     -7867.1231      36858.949      37064.896     -97525.214     -138.36462     -148.55834      137.95369      28.826509      24.964488      25.909589      18645.552    
Loop time of 0.600423 on 6 procs for 100 steps with 2160 atoms

99.6% CPU use with 6 MPI tasks x 1 OpenMP threads

Minimization stats:
  Stopping criterion = max iterations
  Energy initial, next-to-last, final = 
     -15973.8247586136  -15974.5533460828  -15974.5533460828
  Force two-norm initial, final = 6.5443367 6.1485942e-10
  Force max component initial, final = 0.20839371 2.9126629e-11
  Final line search alpha, max atom move = 1 2.9126629e-11
  Iterations, force evaluations = 100 200

MPI task timing breakdown:
Section |  min time  |  avg time  |  max time  |%varavg| %total
---------------------------------------------------------------
Pair    | 0.45648    | 0.47595    | 0.49605    |   2.1 | 79.27
Neigh   | 0          | 0          | 0          |   0.0 |  0.00
Comm    | 0.0916     | 0.11172    | 0.13122    |   4.3 | 18.61
Output  | 0.0043709  | 0.004991   | 0.0057416  |   0.6 |  0.83
Modify  | 0          | 0          | 0          |   0.0 |  0.00
Other   |            | 0.007757   |            |       |  1.29

Nlocal:            360 ave         360 max         360 min
Histogram: 6 0 0 0 0 0 0 0 0 0
Nghost:        2992.67 ave        2998 max        2982 min
Histogram: 2 0 0 0 0 0 0 0 0 4
Neighs:              0 ave           0 max           0 min
Histogram: 6 0 0 0 0 0 0 0 0 0
FullNghs:        26496 ave       26496 max       26496 min
Histogram: 6 0 0 0 0 0 0 0 0 0

Total # of neighbors = 158976
Ave neighs/atom = 73.6
Neighbor list builds = 0
Dangerous builds = 0

# Obtain new stress tensor

variable tmp equal pe
variable e1 equal ${tmp}
variable e1 equal -15974.5533460828
variable tmp equal press
variable p1 equal ${tmp}
variable p1 equal -7867.12313581731
variable tmp equal pxx
variable pxx1 equal ${tmp}
variable pxx1 equal 36858.9491330327
variable tmp equal pyy
variable pyy1 equal ${tmp}
variable pyy1 equal 37064.8956501995
variable tmp equal pzz
variable pzz1 equal ${tmp}
variable pzz1 equal -97525.2141906842
variable tmp equal pxy
variable pxy1 equal ${tmp}
variable pxy1 equal -138.364618075324
variable tmp equal pxz
variable pxz1 equal ${tmp}
variable pxz1 equal -148.558343329729
variable tmp equal pyz
variable pyz1 equal ${tmp}
variable pyz1 equal 137.953693549771

# Compute elastic constant from pressure tensor

variable C1pos equal ${d1}
variable C1pos equal -785603.49439805
variable C2pos equal ${d2}
variable C2pos equal -785606.30779844
variable C3pos equal ${d3}
variable C3pos equal 878154.38633655
variable C4pos equal ${d4}
variable C4pos equal 1.0295684233995
variable C5pos equal ${d5}
variable C5pos equal -48.5843559643001
variable C6pos equal ${d6}
variable C6pos equal 154.826041835199

# Combine positive and negative

variable C1${dir} equal 0.5*(${C1neg}+${C1pos})
variable C16 equal 0.5*(${C1neg}+${C1pos})
variable C16 equal 0.5*(785603.49438879+${C1pos})
variable C16 equal 0.5*(785603.49438879+-785603.49439805)
variable C2${dir} equal 0.5*(${C2neg}+${C2pos})
variable C26 equal 0.5*(${C2neg}+${C2pos})
variable C26 equal 0.5*(785606.307804991+${C2pos})
variable C26 equal 0.5*(785606.307804991+-785606.30779844)
variable C3${dir} equal 0.5*(${C3neg}+${C3pos})
variable C36 equal 0.5*(${C3neg}+${C3pos})
variable C36 equal 0.5*(-878154.38632607+${C3pos})
variable C36 equal 0.5*(-878154.38632607+878154.38633655)
variable C4${dir} equal 0.5*(${C4neg}+${C4pos})
variable C46 equal 0.5*(${C4neg}+${C4pos})
variable C46 equal 0.5*(-1.02956501280005+${C4pos})
variable C46 equal 0.5*(-1.02956501280005+1.0295684233995)
variable C5${dir} equal 0.5*(${C5neg}+${C5pos})
variable C56 equal 0.5*(${C5neg}+${C5pos})
variable C56 equal 0.5*(-49.3318759271972+${C5pos})
variable C56 equal 0.5*(-49.3318759271972+-48.5843559643001)
variable C6${dir} equal 0.5*(${C6neg}+${C6pos})
variable C66 equal 0.5*(${C6neg}+${C6pos})
variable C66 equal 0.5*(153.4740843511+${C6pos})
variable C66 equal 0.5*(153.4740843511+154.826041835199)

# Delete dir to make sure it is not reused

variable dir delete

# Output final values

variable C11all equal ${C11}
variable C11all equal 564.550938630011
variable C22all equal ${C22}
variable C22all equal 564.57151833002
variable C33all equal ${C33}
variable C33all equal 283.248979150492

variable C12all equal 0.5*(${C12}+${C21})
variable C12all equal 0.5*(256.250849094999+${C21})
variable C12all equal 0.5*(256.250849094999+256.271443964972)
variable C13all equal 0.5*(${C13}+${C31})
variable C13all equal 0.5*(287.357109049975+${C31})
variable C13all equal 0.5*(287.357109049975+273.918692444509)
variable C23all equal 0.5*(${C23}+${C32})
variable C23all equal 0.5*(287.377763825003+${C32})
variable C23all equal 0.5*(287.377763825003+273.91875313496)

variable C44all equal ${C44}
variable C44all equal 72.9944636922
variable C55all equal ${C55}
variable C55all equal 72.9944411782512
variable C66all equal ${C66}
variable C66all equal 154.150063093149

variable C14all equal 0.5*(${C14}+${C41})
variable C14all equal 0.5*(-48.9580608350225+${C41})
variable C14all equal 0.5*(-48.9580608350225+-48.9442645103012)
variable C15all equal 0.5*(${C15}+${C51})
variable C15all equal 0.5*(6.09958078712225e-07+${C51})
variable C15all equal 0.5*(6.09958078712225e-07+-0.014904734601373)
variable C16all equal 0.5*(${C16}+${C61})
variable C16all equal 0.5*(-4.63001197203994e-06+${C61})
variable C16all equal 0.5*(-4.63001197203994e-06+-0.0136853551993)

variable C24all equal 0.5*(${C24}+${C42})
variable C24all equal 0.5*(48.9580948500079+${C42})
variable C24all equal 0.5*(48.9580948500079+48.9718929264498)
variable C25all equal 0.5*(${C25}+${C52})
variable C25all equal 0.5*(-6.77950447425246e-06+${C52})
variable C25all equal 0.5*(-6.77950447425246e-06+-0.014911333349232)
variable C26all equal 0.5*(${C26}+${C62})
variable C26all equal 0.5*(3.27551970258355e-06+${C62})
variable C26all equal 0.5*(3.27551970258355e-06+-0.013680615499823)

variable C34all equal 0.5*(${C34}+${C43})
variable C34all equal 0.5*(-2.55205086432397e-05+${C43})
variable C34all equal 0.5*(-2.55205086432397e-05+0.0137664271989)
variable C35all equal 0.5*(${C35}+${C53})
variable C35all equal 0.5*(4.54951077699661e-06+${C53})
variable C35all equal 0.5*(4.54951077699661e-06+-0.0148997525997175)
variable C36all equal 0.5*(${C36}+${C63})
variable C36all equal 0.5*(5.24002825841308e-06+${C63})
variable C36all equal 0.5*(5.24002825841308e-06+-0.0136770618496485)

variable C45all equal 0.5*(${C45}+${C54})
variable C45all equal 0.5*(2.4640499449724e-06+${C54})
variable C45all equal 0.5*(2.4640499449724e-06+2.24689955549695e-06)
variable C46all equal 0.5*(${C46}+${C64})
variable C46all equal 0.5*(1.70529972498557e-06+${C64})
variable C46all equal 0.5*(1.70529972498557e-06+2.51049954153038e-06)
variable C56all equal 0.5*(${C56}+${C65})
variable C56all equal 0.5*(-48.9581159457487+${C65})
variable C56all equal 0.5*(-48.9581159457487+-48.9581157786503)

# Average moduli for cubic crystals

variable C11cubic equal (${C11all}+${C22all}+${C33all})/3.0
variable C11cubic equal (564.550938630011+${C22all}+${C33all})/3.0
variable C11cubic equal (564.550938630011+564.57151833002+${C33all})/3.0
variable C11cubic equal (564.550938630011+564.57151833002+283.248979150492)/3.0
variable C12cubic equal (${C12all}+${C13all}+${C23all})/3.0
variable C12cubic equal (256.261146529985+${C13all}+${C23all})/3.0
variable C12cubic equal (256.261146529985+280.637900747242+${C23all})/3.0
variable C12cubic equal (256.261146529985+280.637900747242+280.648258479982)/3.0
variable C44cubic equal (${C44all}+${C55all}+${C66all})/3.0
variable C44cubic equal (72.9944636922+${C55all}+${C66all})/3.0
variable C44cubic equal (72.9944636922+72.9944411782512+${C66all})/3.0
variable C44cubic equal (72.9944636922+72.9944411782512+154.150063093149)/3.0

variable bulkmodulus equal (${C11cubic}+2*${C12cubic})/3.0
variable bulkmodulus equal (470.790478703508+2*${C12cubic})/3.0
variable bulkmodulus equal (470.790478703508+2*272.515768585736)/3.0
variable shearmodulus1 equal ${C44cubic}
variable shearmodulus1 equal 100.046322654533
variable shearmodulus2 equal (${C11cubic}-${C12cubic})/2.0
variable shearmodulus2 equal (470.790478703508-${C12cubic})/2.0
variable shearmodulus2 equal (470.790478703508-272.515768585736)/2.0
variable poissonratio equal 1.0/(1.0+${C11cubic}/${C12cubic})
variable poissonratio equal 1.0/(1.0+470.790478703508/${C12cubic})
variable poissonratio equal 1.0/(1.0+470.790478703508/272.515768585736)

# For Stillinger-Weber silicon, the analytical results
# are known to be (E. R. Cowley, 1988):
#               C11 = 151.4 GPa
#               C12 = 76.4 GPa
#               C44 = 56.4 GPa

print "========================================="
=========================================
print "Components of the Elastic Constant Tensor"
Components of the Elastic Constant Tensor
print "========================================="
=========================================

print "Elastic Constant C11all = ${C11all} ${cunits}"
Elastic Constant C11all = 564.550938630011 GPa
print "Elastic Constant C22all = ${C22all} ${cunits}"
Elastic Constant C22all = 564.57151833002 GPa
print "Elastic Constant C33all = ${C33all} ${cunits}"
Elastic Constant C33all = 283.248979150492 GPa

print "Elastic Constant C12all = ${C12all} ${cunits}"
Elastic Constant C12all = 256.261146529985 GPa
print "Elastic Constant C13all = ${C13all} ${cunits}"
Elastic Constant C13all = 280.637900747242 GPa
print "Elastic Constant C23all = ${C23all} ${cunits}"
Elastic Constant C23all = 280.648258479982 GPa

print "Elastic Constant C44all = ${C44all} ${cunits}"
Elastic Constant C44all = 72.9944636922 GPa
print "Elastic Constant C55all = ${C55all} ${cunits}"
Elastic Constant C55all = 72.9944411782512 GPa
print "Elastic Constant C66all = ${C66all} ${cunits}"
Elastic Constant C66all = 154.150063093149 GPa

print "Elastic Constant C14all = ${C14all} ${cunits}"
Elastic Constant C14all = -48.9511626726619 GPa
print "Elastic Constant C15all = ${C15all} ${cunits}"
Elastic Constant C15all = -0.00745206232164714 GPa
print "Elastic Constant C16all = ${C16all} ${cunits}"
Elastic Constant C16all = -0.00684499260563602 GPa

print "Elastic Constant C24all = ${C24all} ${cunits}"
Elastic Constant C24all = 48.9649938882288 GPa
print "Elastic Constant C25all = ${C25all} ${cunits}"
Elastic Constant C25all = -0.00745905642685313 GPa
print "Elastic Constant C26all = ${C26all} ${cunits}"
Elastic Constant C26all = -0.00683866999006021 GPa

print "Elastic Constant C34all = ${C34all} ${cunits}"
Elastic Constant C34all = 0.00687045334512838 GPa
print "Elastic Constant C35all = ${C35all} ${cunits}"
Elastic Constant C35all = -0.00744760154447025 GPa
print "Elastic Constant C36all = ${C36all} ${cunits}"
Elastic Constant C36all = -0.00683591091069504 GPa

print "Elastic Constant C45all = ${C45all} ${cunits}"
Elastic Constant C45all = 2.35547475023467e-06 GPa
print "Elastic Constant C46all = ${C46all} ${cunits}"
Elastic Constant C46all = 2.10789963325797e-06 GPa
print "Elastic Constant C56all = ${C56all} ${cunits}"
Elastic Constant C56all = -48.9581158621995 GPa

print "========================================="
=========================================
print "Average properties for a cubic crystal"
Average properties for a cubic crystal
print "========================================="
=========================================

print "Bulk Modulus = ${bulkmodulus} ${cunits}"
Bulk Modulus = 338.607338624993 GPa
print "Shear Modulus 1 = ${shearmodulus1} ${cunits}"
Shear Modulus 1 = 100.046322654533 GPa
print "Shear Modulus 2 = ${shearmodulus2} ${cunits}"
Shear Modulus 2 = 99.137355058886 GPa
print "Poisson Ratio = ${poissonratio}"
Poisson Ratio = 0.3666265009605
Total wall time: 0:00:08
