LAMMPS (29 Sep 2021)
  using 1 OpenMP thread(s) per MPI task
Reading data file ...
  orthogonal box = (0.53774699 0.53333966 0.0000000) to (100.70934 100.71374 665.42400)
  2 by 3 by 16 MPI processor grid
  reading atoms ...
  494500 atoms
  reading velocities ...
  494500 velocities
  read_data CPU = 4.499 seconds
247245 atoms in group g_left
247255 atoms in group g_right

CITE-CITE-CITE-CITE-CITE-CITE-CITE-CITE-CITE-CITE-CITE-CITE-CITE

Your simulation uses code contributions which should be cited:
- @article{cjiang2012
The log file lists these citations in BibTeX format.

CITE-CITE-CITE-CITE-CITE-CITE-CITE-CITE-CITE-CITE-CITE-CITE-CITE

Neighbor list info ...
  update every 1 steps, delay 10 steps, check yes
  max neighbors/atom: 2000, page size: 100000
  master list distance cutoff = 8.28721
  ghost atom cutoff = 8.28721
  binsize = 4.143605, bins = 25 25 161
  3 neighbor lists, perpetual/occasional/extra = 3 0 0
  (1) pair eam/alloy, perpetual, skip from (3)
      attributes: half, newton on
      pair build: skip
      stencil: none
      bin: none
  (2) pair edip/multi, perpetual
      attributes: full, newton on
      pair build: full/bin/atomonly
      stencil: full/bin/3d
      bin: standard
  (3) neighbor class addition, perpetual, half/full from (2)
      attributes: half, newton on
      pair build: halffull/newton
      stencil: none
      bin: none
Setting up Verlet run ...
  Unit style    : metal
  Current step  : 0
  Time step     : 0.00025
Per MPI rank memory allocation (min/avg/max) = 9.771 | 12.40 | 15.65 Mbytes
Step Time Temp Press PotEng KinEng TotEng Volume 
       0            0     14842.75    148872.63   -2200887.6    948733.95   -1252153.6    6677683.2 
     100        0.025    14840.026    149307.95   -2200874.6    948559.82   -1252314.8    6662630.4 
     200         0.05    14839.618    149287.32     -2200903    948533.73   -1252369.3    6647577.5 
     300        0.075     14839.77    149713.84   -2200885.9    948543.45   -1252342.4    6632524.7 
     400          0.1    14840.463    150386.04   -2200906.7    948587.77   -1252318.9    6617471.8 
     500        0.125    14839.827    150608.05     -2200877     948547.1   -1252329.9      6602419 
     600         0.15    14839.751    150931.77   -2200876.3    948542.24     -1252334    6587366.2 
     700        0.175     14840.09    151202.39   -2200877.3    948563.87   -1252313.5    6572313.3 
     800          0.2    14841.476    151644.28   -2200937.8    948652.49   -1252285.3    6557260.5 
     900        0.225    14840.895    151230.96   -2200882.4    948615.35   -1252267.1    6542207.6 
    1000         0.25    14840.471    152295.02   -2200861.3    948588.27     -1252273    6527154.8 
    1100        0.275     14840.69    152781.39   -2200900.1    948602.27   -1252297.8    6512101.9 
    1200          0.3     14840.49    153031.16   -2200904.3    948589.49   -1252314.8    6497049.1 
    1300        0.325     14840.35    153094.86   -2200889.1    948580.52   -1252308.6    6481996.2 
    1400         0.35    14841.041    153434.72   -2200911.2    948624.71   -1252286.5    6466943.4 
    1500        0.375    14840.666    154027.93   -2200877.3    948600.73   -1252276.6    6451890.5 
    1600          0.4    14840.843    154242.94   -2200891.9       948612   -1252279.9    6436837.7 
    1700        0.425    14841.554       154853   -2200930.6     948657.5   -1252273.1    6421784.9 
    1800         0.45    14840.606    156182.98   -2200853.5    948596.91   -1252256.6      6406732 
    1900        0.475    14764.988    170392.91   -2196026.6    943763.47   -1252263.2    6391679.2 
    2000          0.5    14533.062    204007.56   -2181244.9    928938.97     -1252306    6376626.3 
    2100        0.525     14288.67    235667.27     -2165653    913317.69   -1252335.3    6361573.5 
    2200         0.55    14056.171    261164.41   -2150777.7    898456.59   -1252321.1    6346520.6 
    2300        0.575    13845.956    283362.67   -2137323.3    885019.83   -1252303.4    6331467.8 
    2400          0.6    13640.231    303143.15   -2124200.4    871870.08   -1252330.3    6316414.9 
    2500        0.625    13443.376    321444.31   -2111659.5    859287.29   -1252372.2    6301362.1 
    2600         0.65    13265.838    335858.61   -2100304.8    847939.26   -1252365.6    6286309.2 
    2700        0.675    13112.333    340960.66   -2090447.9    838127.38   -1252320.6    6271256.4 
    2800          0.7    12987.349    341650.73   -2082446.8    830138.55   -1252308.3    6256203.6 
    2900        0.725    12903.015    340905.88   -2077081.1    824747.99   -1252333.1    6241150.7 
    3000         0.75    12840.533    337668.77   -2073098.9    820754.22   -1252344.7    6226097.9 
    3100        0.775    12799.574    337056.83   -2070463.1    818136.14   -1252326.9      6211045 
    3200          0.8    12784.296    332453.06   -2069466.9    817159.58   -1252307.3    6195992.2 
    3300        0.825    12775.512    326975.02   -2068885.2     816598.1   -1252287.1    6180939.3 
    3400         0.85    12771.787    323404.09     -2068597    816360.04   -1252236.9    6165886.5 
    3500        0.875    12768.476    319620.28   -2068313.7    816148.35   -1252165.3    6150833.6 
    3600          0.9    12763.733     313604.1   -2067964.1     815845.2   -1252118.9    6135780.8 
    3700        0.925    12747.341    311962.15   -2066929.9    814797.47   -1252132.4    6120727.9 
    3800         0.95    12730.188    308746.45   -2065858.6    813701.02   -1252157.6    6105675.1 
    3900        0.975    12698.038    307421.93   -2063791.1    811646.03   -1252145.1    6090622.2 
    4000            1     12664.53    306884.37   -2061615.3    809504.25     -1252111    6075569.4 
    4100        1.025    12625.069    304386.71   -2059072.1    806981.95   -1252090.1    6060516.6 
    4200         1.05    12583.323    306024.32   -2056404.3    804313.57   -1252090.7    6045463.7 
    4300        1.075    12523.502    305504.75   -2052596.4    800489.85   -1252106.5    6030410.9 
    4400          1.1    12469.272    303812.52   -2049159.1    797023.56   -1252135.5      6015358 
    4500        1.125    12413.111    304300.67   -2045580.9    793433.77   -1252147.1    6000305.2 
    4600         1.15    12356.207    304830.61   -2041928.9    789796.56   -1252132.4    5985252.3 
    4700        1.175    12299.932    305871.65   -2038302.4    786199.51   -1252102.9    5970199.5 
    4800          1.2    12237.382    305372.53   -2034282.7    782201.39   -1252081.3    5955146.6 
    4900        1.225    12179.786    307416.21   -2030610.6    778519.91   -1252090.7    5940093.8 
    5000         1.25    12125.419    308450.75   -2027145.7    775044.78   -1252100.9    5925040.9 
    5100        1.275    12062.075    311017.09   -2023072.1    770995.89   -1252076.2    5909988.1 
    5200          1.3    12003.775    309855.27   -2019320.3    767269.45   -1252050.8    5894935.3 
    5300        1.325    11952.932     312061.3   -2016077.6    764019.58     -1252058    5879882.4 
    5400         1.35     11898.18    313492.96   -2012599.5    760519.89   -1252079.6    5864829.6 
    5500        1.375    11770.488    319641.06   -2004445.2    752357.97   -1252087.2    5849776.7 
    5600          1.4    11654.691    323401.67   -1997032.4    744956.33     -1252076    5834723.9 
    5700        1.425    11470.366    327726.56     -1985239    733174.44   -1252064.5      5819671 
    5800         1.45    11361.993    336088.89   -1978312.3    726247.34     -1252065    5804618.2 
    5900        1.475    11221.464    341784.78   -1969342.5    717264.92   -1252077.6    5789565.3 
    6000          1.5    11078.229     344865.8   -1960208.7    708109.46   -1252099.3    5774512.5 
    6100        1.525    10945.945    355118.17   -1951767.1    699654.01   -1252113.1    5759459.6 
    6200         1.55    10828.954    359491.67     -1944277    692176.02     -1252101    5744406.8 
    6300        1.575    10708.029    366977.08   -1936527.3    684446.66   -1252080.6    5729353.9 
    6400          1.6    10602.569     372782.9   -1929793.1    677705.74   -1252087.4    5714301.1 
    6500        1.625    10494.303    380618.32   -1922917.2    670785.51   -1252131.7    5699248.3 
    6600         1.65    10396.701       388159   -1916728.8    664546.88   -1252181.9    5684195.4 
    6700        1.675    10300.571    394457.91   -1910603.3     658402.3     -1252201    5669142.6 
    6800          1.7    10208.374    401261.31   -1904697.6    652509.16   -1252188.5    5654089.7 
    6900        1.725    10121.917    408127.26   -1899157.7    646982.93   -1252174.8    5639036.9 
    7000         1.75    10046.806    417255.54   -1894344.8     642181.9   -1252162.9      5623984 
    7100        1.775    9964.5714    425568.11   -1889073.5    636925.56   -1252147.9    5608931.2 
    7200          1.8    9887.0467     437209.4   -1884108.9    631970.26   -1252138.6    5593878.3 
    7300        1.825    9809.2398    447459.97   -1879138.5    626996.92   -1252141.6    5578825.5 
    7400         1.85    9718.2783    458326.26   -1873332.1    621182.75   -1252149.3    5563772.6 
    7500        1.875    9654.8493    467719.97   -1869285.9    617128.43   -1252157.5    5548719.8 
    7600          1.9    9684.9549    473087.63   -1871233.3    619052.75   -1252180.6      5533667 
    7700        1.925    9636.3881    474934.56   -1868155.8    615948.41   -1252207.4    5518614.1 
    7800         1.95    9573.1854    480275.86   -1864125.5    611908.55     -1252217    5503561.3 
    7900        1.975    9561.8268     486344.2   -1863389.8    611182.52   -1252207.3    5488508.4 
    8000            2    9533.2297    493157.51   -1861569.8    609354.63   -1252215.2    5473455.6 
    8100        2.025    9446.2713     500829.2   -1856046.7    603796.34   -1252250.4    5458402.7 
    8200         2.05    9467.3848    503746.15   -1857421.1    605145.89   -1252275.2    5443349.9 
    8300        2.075    9386.1245    510842.56   -1852208.7    599951.81   -1252256.9      5428297 
    8400          2.1    9303.0893    514967.69   -1846874.6    594644.28   -1252230.3    5413244.2 
    8500        2.125    9291.7489    521952.38   -1846164.3    593919.41   -1252244.9    5398191.3 
    8600         2.15    9197.6783    530267.05   -1840168.3    587906.51   -1252261.8    5383138.5 
    8700        2.175    9125.0487    537474.74   -1835492.6     583264.1   -1252228.5    5368085.7 
    8800          2.2    9080.0321    542582.06   -1832552.5    580386.69   -1252165.8    5353032.8 
    8900        2.225      8985.21    550267.06   -1826456.1    574325.75   -1252130.4      5337980 
    9000         2.25    8918.2857    558672.83   -1822190.6    570048.02   -1252142.6    5322927.1 
    9100        2.275    8853.4094    563641.97     -1818054    565901.19   -1252152.8    5307874.3 
    9200          2.3    8784.0359    571743.58   -1813607.3     561466.9   -1252140.4    5292821.4 
    9300        2.325    8731.5065    577108.42   -1810248.1    558109.27   -1252138.9    5277768.6 
    9400         2.35    8669.3019    582644.64   -1806294.5    554133.22   -1252161.3    5262715.7 
    9500        2.375    8620.1889    586749.97   -1803166.1    550993.96   -1252172.1    5247662.9 
    9600          2.4    8560.2956    592352.89     -1799323    547165.64   -1252157.4      5232610 
    9700        2.425    8513.2738    596119.03   -1796304.7    544160.05   -1252144.7    5217557.2 
    9800         2.45    8458.3767    600696.52   -1792797.7    540651.08   -1252146.6    5202504.3 
    9900        2.475    8420.7167    603520.63   -1790381.1     538243.9   -1252137.2    5187451.5 
   10000          2.5    8379.0246    609895.45   -1787682.6    535578.97   -1252103.7    5172398.7 
   10100        2.525    8333.0892    614875.69   -1784737.8    532642.83     -1252095    5157345.8 
   10200         2.55    8270.2659     618495.8   -1780748.8    528627.23   -1252121.6      5142293 
   10300        2.575    8221.0549    625195.99   -1777626.6    525481.71   -1252144.9    5127240.1 
   10400          2.6    8140.9167     631715.8   -1772495.1    520359.36   -1252135.8    5112187.3 
   10500        2.625    8096.4542    634400.06   -1769642.1    517517.36   -1252124.7    5097134.4 
   10600         2.65    8026.9728    637723.83   -1765231.9    513076.17   -1252155.7    5082081.6 
   10700        2.675    7962.0497    642642.94   -1761119.9    508926.36   -1252193.6    5067028.7 
   10800          2.7     7886.567    646205.99   -1756294.7    504101.57   -1252193.2    5051975.9 
   10900        2.725    7814.9963    654766.43   -1751693.5    499526.84   -1252166.7      5036923 
   11000         2.75    7748.0366    657998.04   -1747398.1    495246.85   -1252151.2    5021870.2 
   11100        2.775    7671.3081    658892.38   -1742496.3    490342.44   -1252153.8    5006817.4 
   11200          2.8    7594.7297    665957.11   -1737594.6    485447.62     -1252147    4991764.5 
   11300        2.825    7522.7473    671528.11   -1732974.8    480846.58   -1252128.2    4976711.7 
   11400         2.85     7437.448    675129.69   -1727512.2    475394.33   -1252117.9    4961658.8 
   11500        2.875    7345.3222    679824.41   -1721625.5    469505.74   -1252119.8      4946606 
   11600          2.9    7249.0357    687651.54   -1715469.9     463351.2   -1252118.7    4931553.1 
   11700        2.925    7149.6468    691179.99   -1709115.2    456998.36   -1252116.8    4916500.3 
   11800         2.95    7040.8519    697258.21   -1702156.5     450044.3   -1252112.2    4901447.4 
   11900        2.975    6933.8005    705957.54   -1695313.2    443201.68   -1252111.6    4886394.6 
   12000            3    6821.4509     711566.4   -1688135.2     436020.4   -1252114.8    4871341.7 
   12100        3.025    6706.7768    717756.73   -1680812.9    428690.55   -1252122.3    4856288.9 
   12200         3.05    6586.5464    727513.63   -1673136.4    421005.54   -1252130.8      4841236 
   12300        3.075    6463.8472    735581.65   -1665293.4    413162.73   -1252130.6    4826183.2 
   12400          3.1    6334.7966    746240.77   -1657031.8    404913.95   -1252117.9    4811130.4 
   12500        3.125    6203.3461    752697.88   -1648614.3    396511.76   -1252102.5    4796077.5 
   12600         3.15    6069.8341    761972.75   -1640074.3     387977.8   -1252096.5    4781024.7 
   12700        3.175    5973.3723    767817.88     -1633911    381812.06     -1252099    4765971.8 
   12800          3.2    5890.1745     772724.3   -1628581.7    376494.13   -1252087.6      4750919 
   12900        3.225    5785.5053    774825.68   -1621853.2    369803.79   -1252049.4    4735866.1 
   13000         3.25    5694.2483    781036.29   -1615975.3    363970.73   -1252004.6    4720813.3 
   13100        3.275    5615.7916    787975.16   -1610955.8    358955.86   -1251999.9    4705760.4 
   13200          3.3    5498.2026    792868.36   -1603448.4    351439.68   -1252008.7    4690707.6 
   13300        3.325    5440.6425    794872.65   -1599760.2    347760.49   -1251999.7    4675654.7 
   13400         3.35    5342.0176    804047.67   -1593451.9    341456.49   -1251995.4    4660601.9 
   13500        3.375    5253.5576    806905.46   -1587810.4    335802.22   -1252008.2    4645549.1 
   13600          3.4    5185.4076    812327.24   -1583470.8    331446.13   -1252024.7    4630496.2 
   13700        3.425    5085.9964    818691.99   -1577113.3    325091.86   -1252021.5    4615443.4 
   13800         3.45    5032.9007    822336.66   -1573690.3    321698.04   -1251992.2    4600390.5 
   13900        3.475    4940.3809    830563.92     -1567744    315784.27   -1251959.7    4585337.7 
   14000          3.5     4874.421    835264.43   -1563503.6    311568.17   -1251935.5    4570284.8 
   14100        3.525     4810.893    842490.24   -1559413.9    307507.53   -1251906.3      4555232 
   14200         3.55    4740.0709    851067.09   -1554860.2    302980.65   -1251879.6    4540179.1 
   14300        3.575     4700.579    858124.03   -1552349.6    300456.37   -1251893.2    4525126.3 
   14400          3.6    4647.5166    867664.25   -1548990.7    297064.67     -1251926    4510073.4 
   14500        3.625    4625.5367    874307.52   -1547600.2    295659.74   -1251940.4    4495020.6 
   14600         3.65    4586.7639    884053.07   -1545119.6    293181.42   -1251938.2    4479967.7 
   14700        3.675    4568.5148    891827.96   -1543953.8    292014.95   -1251938.8    4464914.9 
   14800          3.7    4529.1483    904878.25   -1541444.6    289498.69   -1251945.9    4449862.1 
   14900        3.725    4505.0057    917555.47     -1539900    287955.52   -1251944.5    4434809.2 
   15000         3.75    4475.0289    929327.87   -1537976.8    286039.43   -1251937.4    4419756.4 
   15100        3.775    4448.0425    943426.39   -1536257.4    284314.48   -1251942.9    4404703.5 
   15200          3.8    4425.2062    959235.87     -1534827    282854.81   -1251972.2    4389650.7 
   15300        3.825    4397.2398    968688.22   -1533052.4    281067.23   -1251985.2    4374597.8 
   15400         3.85    4373.2678    975926.64     -1531492    279534.96   -1251957.1      4359545 
   15500        3.875     4348.216    986238.12   -1529855.9    277933.67   -1251922.2    4344492.1 
   15600          3.9    4326.0547    995872.36   -1528436.4    276517.14   -1251919.3    4329439.3 
   15700        3.925    4305.9445    1006097.8   -1527169.2    275231.72   -1251937.5    4314386.4 
   15800         3.95    4282.8573    1011460.3   -1525703.7    273756.01   -1251947.7    4299333.6 
   15900        3.975    4243.4825    1021590.2   -1523182.3    271239.21   -1251943.1    4284280.8 
   16000            4    4188.6709    1031305.7   -1519677.2    267735.71   -1251941.5    4269227.9 
   16100        4.025    4142.1234    1043708.8   -1516701.3    264760.44   -1251940.8    4254175.1 
   16200         4.05    4078.0081    1048268.8   -1512593.5    260662.25   -1251931.2    4239122.2 
   16300        4.075    4009.9732    1059246.2   -1508227.4    256313.53   -1251913.8    4224069.4 
   16400          4.1    3941.0697    1067921.6   -1503810.3    251909.28     -1251901    4209016.5 
   16500        4.125    3851.7199    1079625.7   -1498098.1    246198.13     -1251900    4193963.7 
   16600         4.15    3744.2459      1089212   -1491213.5     239328.5     -1251885    4178910.8 
   16700        4.175    3622.9301    1097149.3   -1483420.4    231574.11   -1251846.3      4163858 
   16800          4.2    3509.8914    1106346.9   -1476108.9    224348.79   -1251760.1    4148805.1 
   16900        4.225    3390.5386    1116779.4   -1468295.2    216719.88   -1251575.4    4133752.3 
   17000         4.25    3265.9075    1128056.9   -1460104.6    208753.58     -1251351    4118699.5 
   17100        4.275     3192.653    1143802.3   -1451131.1    204071.23   -1247059.9    4103646.6 
   17200          4.3    3345.8573      1165664   -1435049.8     213863.9   -1221185.9    4088593.8 
   17300        4.325    3633.8456    1193053.8   -1419775.1    232271.82   -1187503.3    4073540.9 
   17400         4.35    3744.2532    1220919.7   -1400379.4    239328.97   -1161050.4    4058488.1 
   17500        4.375    3782.9341    1251440.8   -1380163.1    241801.41   -1138361.7    4043435.2 
   17600          4.4    3931.3395    1279887.6   -1356875.5    251287.34   -1105588.2    4028382.4 
   17700        4.425    4208.7864    1310472.2   -1336433.6    269021.47   -1067412.1    4013329.5 
   17800         4.45    4440.6618    1337018.6   -1316322.4    283842.72   -1032479.6    3998276.7 
   17900        4.475    4693.3833    1359564.8     -1298729    299996.42   -998732.53    3983223.8 
   18000          4.5     5011.807    1382470.6   -1279725.6    320349.75    -959375.8      3968171 
   18100        4.525    5335.7643    1405486.1   -1261861.5    341056.78   -920804.68    3953118.1 
   18200         4.55    5515.3796    1430721.7   -1242433.1    352537.62   -889895.49    3938065.3 
   18300        4.575    5625.5636    1453088.3   -1222845.8    359580.47   -863265.36    3923012.5 
   18400          4.6    5692.7419    1470687.7   -1201854.9    363874.44   -837980.47    3907959.6 
   18500        4.625    5737.8482      1494645   -1181323.6    366757.59   -814566.05    3892906.8 
   18600         4.65    5762.0802    1518716.6   -1159620.8    368306.47   -791314.34    3877853.9 
   18700        4.675     5801.547    1545543.5   -1136229.9    370829.15   -765400.76    3862801.1 
   18800          4.7    5807.3765    1581985.8   -1109107.4    371201.77   -737905.65    3847748.2 
   18900        4.725    5771.8258    1620027.6   -1081034.9     368929.4   -712105.49    3832695.4 
   19000         4.75    5714.8018    1653210.8   -1052222.3    365284.49   -686937.78    3817642.5 
   19100        4.775    5718.2021    1690176.2   -1025723.5    365501.83   -660221.67    3802589.7 
   19200          4.8    5767.9247    1722353.1   -1001064.5    368680.05   -632384.48    3787536.8 
   19300        4.825    5864.7021      1754456   -977799.91    374865.97   -602933.94      3772484 
   19400         4.85    5986.7617    1790567.1   -955211.82     382667.9   -572543.92    3757431.2 
   19500        4.875    6140.7571    1830410.5   -934013.45    392511.13   -541502.32    3742378.3 
   19600          4.9    6334.8662    1857350.7   -913539.64    404918.39   -508621.25    3727325.5 
   19700        4.925    6542.9422    1897308.6   -891899.56    418218.41   -473681.15    3712272.6 
   19800         4.95     6795.564    1936081.9   -870404.14    434365.74    -436038.4    3697219.8 
   19900        4.975     7167.519    1969602.8   -850762.27    458140.73   -392621.53    3682166.9 
   20000            5    7715.3871    2003393.7   -834628.38    493159.92   -341468.46    3667114.1 
   20100        5.025    8353.7601    2034724.4   -821284.71    533964.09   -287320.61    3652061.2 
   20200         5.05    8941.8643    2060001.7   -807740.44    571555.13    -236185.3    3637008.4 
   20300        5.075    9469.0925    2083634.1   -794578.93    605255.04   -189323.89    3621955.5 
   20400          5.1    9983.1996    2108075.9   -781404.28    638116.26   -143288.02    3606902.7 
   20500        5.125    10470.994    2130456.1   -768020.59    669295.63    -98724.96    3591849.8 
   20600         5.15     10927.14    2157200.8   -755285.41    698452.01   -56833.398      3576797 
   20700        5.175    11316.178    2179796.8   -741525.16    723318.91   -18206.249    3561744.2 
   20800          5.2    11690.808    2205865.3   -728042.41    747264.92     19222.51    3546691.3 
   20900        5.225    12041.951    2233318.3   -714275.11    769709.59    55434.483    3531638.5 
   21000         5.25      12398.8      2263394      -701037    792519.06     91482.06    3516585.6 
   21100        5.275    12730.051    2302744.6   -686736.38     813692.3    126955.92    3501532.8 
   21200          5.3    13038.601    2340252.4   -670489.53    833414.52    162924.98    3486479.9 
   21300        5.325    13305.605    2385375.7   -651749.44    850481.16    198731.72    3471427.1 
   21400         5.35    13549.725    2427334.5   -631423.34    866085.04     234661.7    3456374.2 
   21500        5.375    13785.668      2471823   -609648.16    881166.26     271518.1    3441321.4 
   21600          5.4    13984.448    2516007.5   -585583.22    893872.09    308288.87    3426268.5 
   21700        5.425    14162.921    2557313.2   -560633.99    905279.95    344645.96    3411215.7 
   21800         5.45    14282.419    2600168.7   -533378.39    912918.12    379539.73    3396162.9 
   21900        5.475    14351.883    2642616.1   -504488.49    917358.18    412869.69      3381110 
   22000          5.5    14340.581    2687331.5   -472789.32    916635.74    443846.42    3366057.2 
   22100        5.525    14317.066    2733288.6   -442230.72    915132.75    472902.03    3351004.3 
   22200         5.55    14261.371    2778990.2   -411606.47    911572.73    499966.26    3335951.5 
   22300        5.575    14179.627    2822076.8    -381272.7    906347.76    525075.06    3320898.6 
   22400          5.6    14124.727    2871588.8   -353552.34    902838.57    549286.24    3305845.8 
   22500        5.625    14060.774    2917097.1   -326189.02    898750.82    572561.79    3290792.9 
   22600         5.65    14032.596      2955545   -301011.54    896949.66    595938.12    3275740.1 
   22700        5.675    14051.926    2988618.6   -278727.91    898185.26    619457.35    3260687.2 
   22800          5.7    14109.866    3027225.4      -258300    901888.69     643588.7    3245634.4 
   22900        5.725    14226.412    3058177.8   -241314.47    909338.18    668023.71    3230581.5 
   23000         5.75    14361.343    3087009.5   -225827.93    917962.89    692134.96    3215528.7 
   23100        5.775    14514.057    3118463.1   -211229.61    927724.22     716494.6    3200475.9 
   23200          5.8    14702.447    3147116.1   -198922.17     939765.9    740843.72      3185423 
   23300        5.825    14890.087    3171343.9   -186432.48    951759.66    765327.18    3170370.2 
   23400         5.85    15108.054    3205079.3   -175777.54    965691.92    789914.38    3155317.3 
   23500        5.875    15306.813    3233558.6   -162811.61    978396.39    815584.78    3140264.5 
   23600          5.9    15532.663    3279064.4   -151087.95    992832.45     841744.5    3125211.6 
   23700        5.925    15685.894      3343529   -133999.81    1002626.8    868627.02    3110158.8 
   23800         5.95    15851.223    3415545.5   -116149.92    1013194.5     897044.6    3095105.9 
   23900        5.975    16004.373    3480822.2   -95287.983    1022983.7    927695.73    3080053.1 
   24000            6    16180.549      3554107   -73858.065    1034244.7    960386.65    3065000.2 
   24100        6.025     16380.91    3637087.3   -51024.041    1047051.6    996027.52    3049947.4 
   24200         6.05    16627.005    3708099.4    -28731.09    1062781.7    1034050.6    3034894.6 
   24300        6.075    16883.057      3793677   -6012.8648    1079148.3    1073135.4    3019841.7 
   24400          6.1    17117.138    3868996.6    18412.556    1094110.5    1112523.1    3004788.9 
   24500        6.125    17354.673      3956728    43416.847    1109293.6    1152710.4      2989736 
   24600         6.15    17502.076    4052753.1    74315.695    1118715.4    1193031.1    2974683.2 
   24700        6.175    17583.027      4160336    110251.55    1123889.7    1234141.3    2959630.3 
   24800          6.2    17586.556    4290410.1    152257.47    1124115.3    1276372.7    2944577.5 
   24900        6.225     17523.92    4423588.3    199998.21    1120111.7    1320109.9    2929524.6 
   25000         6.25     17452.35    4574807.4    249488.22      1115537    1365025.2    2914471.8 
   25100        6.275    17329.451    4717756.5    303421.58    1107681.4      1411103    2899418.9 
   25200          6.3     17208.25    4835193.8    357120.55    1099934.3    1457054.9    2884366.1 
   25300        6.325    17084.816      4944435    410951.92    1092044.5    1502996.5    2869313.3 
   25400         6.35    16973.014    5021053.8    463203.18    1084898.3    1548101.5    2854260.4 
   25500        6.375    16880.479    5089474.4    512877.75    1078983.6    1591861.3    2839207.6 
   25600          6.4    16838.568    5147297.4     558568.5    1076304.6    1634873.1    2824154.7 
   25700        6.425    16789.713    5203534.8     603764.3    1073181.9    1676946.2    2809101.9 
   25800         6.45     16760.29    5271641.7    646287.02    1071301.2    1717588.2      2794049 
   25900        6.475    16736.029    5333162.6    687858.28    1069750.4    1757608.7    2778996.2 
   26000          6.5     16699.51    5407902.9    729894.25    1067416.2    1797310.5    2763943.3 
   26100        6.525    16698.564    5481694.6    769178.24    1067355.7      1836534    2748890.5 
   26200         6.55    16685.203    5570483.4    809290.71    1066501.7    1875792.4    2733837.6 
   26300        6.575    16684.081    5660966.8    847847.46      1066430    1914277.4    2718784.8 
   26400          6.6    16664.063    5749387.7     886681.6    1065150.4      1951832    2703731.9 
   26500        6.625    16610.895    5839312.6    927556.36      1061752    1989308.3    2688679.1 
   26600         6.65    16445.474    5939987.9    974533.92    1051178.5    2025712.4    2673626.3 
   26700        6.675    16203.957    6028802.3    1025884.3      1035741    2061625.3    2658573.4 
   26800          6.7    15864.086      6117018    1082205.9    1014016.7    2096222.6    2643520.6 
   26900        6.725    15480.495    6227177.2    1140853.3    989497.94    2130351.2    2628467.7 
   27000         6.75     15002.31    6326361.2    1204326.4    958932.86    2163259.2    2613414.9 
   27100        6.775    14422.825    6458037.3    1274026.4    921892.72    2195919.1      2598362 
   27200          6.8    13810.642    6585399.2    1344792.7    882762.58    2227555.2    2583309.2 
   27300        6.825    13251.591    6714429.4    1411768.6    847028.61    2258797.2    2568256.3 
   27400         6.85    12705.583    6840934.4    1476647.7    812128.32      2288776    2553203.5 
   27500        6.875     12235.46    6976854.3    1536821.4     782078.5    2318899.9    2538150.6 
   27600          6.9    11819.876    7104976.3    1593654.6     755514.8    2349169.4    2523097.8 
   27700        6.925    11531.711    7218189.6    1642213.8    737095.57    2379309.4      2508045 
   27800         6.95    11381.391    7304918.6    1682988.5    727487.25    2410475.7    2492992.1 
   27900        6.975    11256.904    7401458.4    1724442.2    719530.17    2443972.3    2477939.3 
   28000            7    11198.995    7502706.7    1763764.6    715828.71    2479593.3    2462886.4 
   28100        7.025    11127.658    7606062.7    1805105.8    711268.89    2516374.7    2447833.6 
   28200         7.05    11045.819    7725141.3    1848577.3    706037.83    2554615.1    2432780.7 
   28300        7.075    10832.619    7871622.4      1899748     692410.3    2592158.3    2417727.9 
   28400          7.1    10550.185    8035112.4    1957029.2    674357.39    2631386.6      2402675 
   28500        7.125    10380.531    8234611.8    2021271.6    663513.28    2684784.9    2387622.2 
   28600         7.15    10616.529    8475323.1    2112445.4    678598.02    2791043.4    2372569.3 
   28700        7.175    11708.523    8736889.1    2209472.6    748397.23    2957869.8    2357516.5 
   28800          7.2    12322.179    8990903.4    2309550.3    787621.52    3097171.8    2342463.6 
   28900        7.225    12799.996      9236582    2405317.2    818163.11    3223480.3    2327410.8 
   29000         7.25    13403.863    9464027.9    2507032.9    856761.69    3363794.6      2312358 
   29100        7.275    13649.821    9720727.4    2610913.7    872483.08    3483396.8    2297305.1 
   29200          7.3    13821.827    9954935.5      2715511    883477.53    3598988.5    2282252.3 
   29300        7.325    14347.339     10202761    2813869.7    917067.74    3730937.4    2267199.4 
   29400         7.35    14944.394     10419365    2906707.9    955230.91    3861938.8    2252146.6 
   29500        7.375    15781.216     10629770    2988858.2    1008719.7    3997577.9    2237093.7 
   29600          7.4    16816.375     10849169    3070875.7    1074886.1    4145761.8    2222040.9 
   29700        7.425    17925.938     11043600    3153040.7    1145808.3    4298848.9      2206988 
   29800         7.45    18983.363     11272836    3241706.2    1213397.8      4455104    2191935.2 
   29900        7.475    19744.064     11519565    3343241.8    1262021.1    4605262.9    2176882.3 
   30000          7.5    20151.062     11799039    3457196.9      1288036    4745232.9    2161829.5 
   30100        7.525    20281.142     12092064      3584725    1296350.6    4881075.6    2146776.7 
   30200         7.55    20195.681     12386771    3719512.8      1290888    5010400.8    2131723.8 
   30300        7.575    20016.451     12674007    3855046.2    1279431.8    5134477.9      2116671 
   30400          7.6    19951.755     12964158      3982482    1275296.5    5257778.5    2101618.1 
   30500        7.625    19891.171     13238139      4104668      1271424      5376092    2086565.3 
   30600         7.65    20016.968     13515089    4210471.8    1279464.8    5489936.6    2071512.4 
   30700        7.675    20334.503     13861612    4303047.5    1299761.4    5602808.9    2056459.6 
   30800          7.7    20840.604     14258074    4386593.5    1332110.9    5718704.3    2041406.7 
   30900        7.725    21600.694     14644667    4463054.5      1380695    5843749.5    2026353.9 
   31000         7.75    22282.449     15037135    4555228.6    1424272.1    5979500.7      2011301 
   31100        7.775    22909.957     15486286    4664018.1    1464381.8    6128399.9    1996248.2 
