LAMMPS (29 Sep 2021)
  using 1 OpenMP thread(s) per MPI task
Reading data file ...
  orthogonal box = (-0.55769526 -0.47818063 0.0000000) to (101.85676 101.77725 528.38451)
  3 by 2 by 16 MPI processor grid
  reading atoms ...
  434962 atoms
  reading velocities ...
  434962 velocities
  read_data CPU = 4.417 seconds
217465 atoms in group g_left
217497 atoms in group g_right

CITE-CITE-CITE-CITE-CITE-CITE-CITE-CITE-CITE-CITE-CITE-CITE-CITE

Your simulation uses code contributions which should be cited:
- @article{cjiang2012
The log file lists these citations in BibTeX format.

CITE-CITE-CITE-CITE-CITE-CITE-CITE-CITE-CITE-CITE-CITE-CITE-CITE

Neighbor list info ...
  update every 1 steps, delay 10 steps, check yes
  max neighbors/atom: 2000, page size: 100000
  master list distance cutoff = 8.28721
  ghost atom cutoff = 8.28721
  binsize = 4.143605, bins = 25 25 128
  3 neighbor lists, perpetual/occasional/extra = 3 0 0
  (1) pair eam/alloy, perpetual, skip from (3)
      attributes: half, newton on
      pair build: skip
      stencil: none
      bin: none
  (2) pair edip/multi, perpetual
      attributes: full, newton on
      pair build: full/bin/atomonly
      stencil: full/bin/3d
      bin: standard
  (3) neighbor class addition, perpetual, half/full from (2)
      attributes: half, newton on
      pair build: halffull/newton
      stencil: none
      bin: none
Setting up Verlet run ...
  Unit style    : metal
  Current step  : 0
  Time step     : 0.00025
Per MPI rank memory allocation (min/avg/max) = 8.763 | 12.51 | 14.56 Mbytes
Step Time Temp Press PotEng KinEng TotEng Volume 
       0            0    2312.3621    21786.523   -1918186.5    130008.21   -1788178.3    5533471.8 
     100        0.025    2311.9341    21830.582   -1918180.4    129984.15   -1788196.2    5528235.6 
     200         0.05    2311.7903    21876.084   -1918180.9    129976.07   -1788204.8    5522999.4 
     300        0.075    2311.5378    21814.838   -1918165.9    129961.87     -1788204    5517763.2 
     400          0.1    2311.6841    21894.912   -1918170.4     129970.1   -1788200.3      5512527 
     500        0.125     2311.773    21867.686   -1918178.6     129975.1   -1788203.5    5507290.8 
     600         0.15    2311.5564    21886.112   -1918179.1    129962.92   -1788216.2    5502054.5 
     700        0.175    2311.4684    21967.806   -1918177.9    129957.97   -1788219.9    5496818.3 
     800          0.2     2311.262    22079.274   -1918163.7    129946.36   -1788217.4    5491582.1 
     900        0.225    2311.1541    21899.155   -1918161.3     129940.3     -1788221    5486345.9 
    1000         0.25    2311.7992    21836.794     -1918198    129976.57   -1788221.5    5481109.7 
    1100        0.275    2311.9375    21802.041   -1918200.7    129984.34   -1788216.3    5475873.5 
    1200          0.3    2310.8824    22003.714   -1918147.6    129925.02   -1788222.6    5470637.2 
    1300        0.325     2311.388    21980.035   -1918174.3    129953.45   -1788220.9      5465401 
    1400         0.35    2311.5741    22099.212   -1918184.2    129963.91   -1788220.3    5460164.8 
    1500        0.375    2311.4615    22023.535   -1918177.8    129957.58   -1788220.2    5454928.6 
    1600          0.4     2311.554    22023.612     -1918178    129962.78   -1788215.2    5449692.4 
    1700        0.425    2311.3127    21889.986   -1918167.2    129949.22     -1788218    5444456.2 
    1800         0.45    2311.6015    22174.649   -1918184.5    129965.45     -1788219    5439219.9 
    1900        0.475    2311.4224    22355.038   -1918181.8    129955.38   -1788226.4    5433983.7 
    2000          0.5    2311.3506    21993.343     -1918182    129951.35   -1788230.6    5428747.5 
    2100        0.525    2311.5814    22091.656   -1918192.8    129964.32   -1788228.4    5423511.3 
    2200         0.55    2310.9073    21947.527   -1918158.3    129926.42   -1788231.8    5418275.1 
    2300        0.575    2310.6866    22151.044   -1918163.9    129914.01   -1788249.9    5413038.9 
    2400          0.6    2311.4558    22158.256   -1918207.4    129957.26   -1788250.1    5407802.6 
    2500        0.625    2311.0885    22377.329   -1918183.6    129936.61     -1788247    5402566.4 
    2600         0.65    2310.8929    22281.435   -1918166.8    129925.61   -1788241.2    5397330.2 
    2700        0.675    2310.6682    22420.919   -1918155.5    129912.98   -1788242.5      5392094 
    2800          0.7    2310.9069    22271.505   -1918177.7     129926.4   -1788251.3    5386857.8 
    2900        0.725    2311.4949    22320.673     -1918203    129959.46   -1788243.5    5381621.6 
    3000         0.75    2311.6471    22324.109   -1918199.2    129968.02   -1788231.2    5376385.3 
    3100        0.775     2311.055     22448.63   -1918156.8    129934.73   -1788222.1    5371149.1 
    3200          0.8    2311.0317    22398.795   -1918156.2    129933.42   -1788222.8    5365912.9 
    3300        0.825      2311.74    22355.772   -1918205.6    129973.24   -1788232.3    5360676.7 
    3400         0.85    2312.0023    22377.895   -1918218.9    129987.99   -1788230.9    5355440.5 
    3500        0.875    2310.8497    22426.438   -1918150.6    129923.18   -1788227.4    5350204.3 
    3600          0.9    2311.3265    22593.991     -1918181    129949.99     -1788231      5344968 
    3700        0.925     2311.359    22415.565   -1918187.4    129951.82   -1788235.6    5339731.8 
    3800         0.95    2311.2787    22478.863   -1918179.8     129947.3   -1788232.5    5334495.6 
    3900        0.975    2311.2023    22495.593   -1918180.6    129943.01   -1788237.6    5329259.4 
    4000            1    2311.3013    22558.353   -1918186.7    129948.58   -1788238.1    5324023.2 
    4100        1.025      2311.06    22622.927   -1918170.3    129935.01   -1788235.3      5318787 
    4200         1.05    2311.3891    22652.528   -1918183.7    129953.51   -1788230.2    5313550.7 
    4300        1.075    2311.2382    22670.972   -1918170.5    129945.03   -1788225.4    5308314.5 
    4400          1.1    2311.5306    22684.348   -1918191.4    129961.47   -1788229.9    5303078.3 
    4500        1.125    2311.9644    22779.117   -1918204.4    129985.86   -1788218.5    5297842.1 
    4600         1.15    2311.5688    22578.468   -1918166.8    129963.61   -1788203.2    5292605.9 
    4700        1.175    2311.9974    22543.351   -1918183.5    129987.71   -1788195.8    5287369.7 
    4800          1.2    2312.4241    22654.158   -1918205.3     130011.7   -1788193.6    5282133.4 
    4900        1.225    2313.6327     22616.67   -1918282.6    130079.65   -1788202.9    5276897.2 
    5000         1.25    2314.6862    22290.018   -1918339.6    130138.89   -1788200.7      5271661 
    5100        1.275    2316.0571     22341.21   -1918411.9    130215.96   -1788195.9    5266424.8 
    5200          1.3    2315.3744     23192.97   -1918369.7    130177.58   -1788192.2    5261188.6 
    5300        1.325    2311.9342    24639.266   -1918176.6    129984.16   -1788192.5    5255952.4 
    5400         1.35    2305.6477    27215.951   -1917822.4    129630.71   -1788191.7    5250716.1 
    5500        1.375    2294.4334    30520.603   -1917194.9    129000.21   -1788194.7    5245479.9 
    5600          1.4    2283.4845     33498.43   -1916583.7    128384.63   -1788199.1    5240243.7 
    5700        1.425    2273.0144    36130.174   -1915997.7    127795.97   -1788201.8    5235007.5 
    5800         1.45    2261.7698    38726.357   -1915361.7    127163.76   -1788197.9    5229771.3 
    5900        1.475    2250.3132    40710.777   -1914709.2    126519.63   -1788189.5      5224535 
    6000          1.5    2239.9193    42647.344   -1914118.1    125935.25   -1788182.9    5219298.8 
    6100        1.525    2228.1855    44610.922   -1913463.1    125275.55   -1788187.6    5214062.6 
    6200         1.55     2215.551    46560.935   -1912754.8    124565.19   -1788189.6    5208826.4 
    6300        1.575    2204.1844     48236.55   -1912116.8    123926.13   -1788190.6    5203590.2 
    6400          1.6     2192.195    50149.524   -1911439.8    123252.05   -1788187.8      5198354 
    6500        1.625    2179.9038    52317.554   -1910746.6       122561   -1788185.6    5193117.7 
    6600         1.65    2167.7332    54401.174   -1910056.9    121876.73   -1788180.2    5187881.5 
    6700        1.675    2155.1668     56759.67   -1909347.8    121170.21   -1788177.6    5182645.3 
    6800          1.7    2142.8636    58554.089   -1908653.8    120478.48   -1788175.4    5177409.1 
    6900        1.725     2130.987    60706.362   -1907986.4    119810.74   -1788175.7    5172172.9 
    7000         1.75    2118.8331    62654.454   -1907299.3    119127.41   -1788171.9    5166936.7 
    7100        1.775    2106.2829     64747.94   -1906588.5     118421.8   -1788166.7    5161700.4 
    7200          1.8    2093.8865    66669.579   -1905885.1    117724.84   -1788160.3    5156464.2 
    7300        1.825    2081.3705    68598.043     -1905181    117021.15   -1788159.9      5151228 
    7400         1.85     2068.202    70781.433     -1904454    116280.78   -1788173.2    5145991.8 
    7500        1.875    2056.0326     72886.69   -1903779.9    115596.57   -1788183.3    5140755.6 
    7600          1.9    2042.9102    74978.822   -1903039.7    114858.79   -1788180.9    5135519.4 
    7700        1.925    2030.2098    77062.963   -1902323.7    114144.74     -1788179    5130283.1 
    7800         1.95    2017.8513    79063.296   -1901627.6     113449.9   -1788177.7    5125046.9 
    7900        1.975    2005.3628    80774.145   -1900927.9    112747.76   -1788180.2    5119810.7 
    8000            2    1992.8009    83368.478   -1900222.9    112041.49   -1788181.4    5114574.5 
    8100        2.025    1979.7991    85300.915   -1899488.7    111310.49   -1788178.2    5109338.3 
    8200         2.05    1966.9692    87487.101   -1898767.6    110589.15   -1788178.5    5104102.1 
    8300        2.075    1955.0009    89351.116   -1898100.6    109916.25   -1788184.4    5098865.8 
    8400          2.1    1941.9365    91607.052   -1897368.7    109181.73   -1788186.9    5093629.6 
    8500        2.125    1929.1613    93658.651   -1896646.7    108463.47   -1788183.3    5088393.4 
    8600         2.15     1917.212     95957.21   -1895961.1    107791.64   -1788169.4    5083157.2 
    8700        2.175    1903.9578    97893.097   -1895215.5    107046.45   -1788169.1      5077921 
    8800          2.2    1891.6582    100310.13   -1894522.3    106354.93   -1788167.3    5072684.8 
    8900        2.225    1877.7971    102135.49   -1893746.2    105575.61   -1788170.5    5067448.5 
    9000         2.25    1865.2497    104259.17   -1893043.1    104870.16   -1788172.9    5062212.3 
    9100        2.275     1852.628    106327.25   -1892334.6    104160.53     -1788174    5056976.1 
    9200          2.3    1839.7768    108462.24     -1891615       103438     -1788177    5051739.9 
    9300        2.325    1826.7671    110717.46   -1890878.2    102706.55   -1788171.7    5046503.7 
    9400         2.35    1814.3902    113064.87   -1890178.4    102010.68   -1788167.8    5041267.5 
    9500        2.375     1800.832     115111.2   -1889417.6     101248.4   -1788169.2    5036031.2 
    9600          2.4    1788.2774    117327.26   -1888715.8    100542.54   -1788173.2      5030795 
    9700        2.425    1775.1647    119354.22   -1887973.1    99805.303   -1788167.8    5025558.8 
    9800         2.45    1763.0554    121339.42   -1887293.1    99124.478   -1788168.6    5020322.6 
    9900        2.475    1752.1671    123401.73   -1886683.3    98512.305     -1788171    5015086.4 
   10000          2.5    1741.2206    125169.55   -1886072.3    97896.857   -1788175.4    5009850.2 
   10100        2.525    1734.6583    126152.02   -1885705.7    97527.903   -1788177.8    5004613.9 
   10200         2.55    1730.6013    127534.25   -1885478.3    97299.809   -1788178.5    4999377.7 
   10300        2.575    1726.5126    128404.08   -1885245.3     97069.93   -1788175.4    4994141.5 
   10400          2.6    1723.7872     129083.7   -1885092.1    96916.699   -1788175.4    4988905.3 
   10500        2.625    1721.5444    130010.13   -1884964.7    96790.602   -1788174.1    4983669.1 
   10600         2.65    1719.6866    130813.62   -1884861.3    96686.151   -1788175.2    4978432.9 
   10700        2.675    1717.1099    131228.33   -1884720.2     96541.28   -1788178.9    4973196.6 
   10800          2.7    1714.5946    132118.04   -1884590.1    96399.863   -1788190.2    4967960.4 
   10900        2.725    1713.5732    132915.99     -1884533    96342.434   -1788190.6    4962724.2 
   11000         2.75    1711.5032    133474.83   -1884414.3    96226.054   -1788188.3      4957488 
   11100        2.775    1710.5237    134085.99   -1884354.8    96170.985   -1788183.9    4952251.8 
   11200          2.8    1708.9882    134966.56   -1884264.1    96084.653   -1788179.4    4947015.5 
   11300        2.825    1707.3138    135352.29   -1884165.3    95990.509   -1788174.8    4941779.3 
   11400         2.85    1706.6876    136227.55   -1884131.3    95955.306     -1788176    4936543.1 
   11500        2.875     1705.278    136602.26   -1884064.5    95876.052   -1788188.5    4931306.9 
   11600          2.9       1703.7    137628.95   -1883977.8    95787.333   -1788190.5    4926070.7 
   11700        2.925    1700.9532    138601.45   -1883823.2    95632.897   -1788190.4    4920834.5 
   11800         2.95    1696.4658    139657.84   -1883564.9    95380.606   -1788184.3    4915598.2 
   11900        2.975    1691.0497    140901.44   -1883255.7    95076.092   -1788179.6      4910362 
   12000            3    1683.0908    142567.77   -1882810.1    94628.617   -1788181.5    4905125.8 
   12100        3.025     1673.635    143848.88   -1882281.1    94096.983   -1788184.1    4899889.6 
   12200         3.05    1664.4862     145216.7   -1881765.4     93582.61   -1788182.8    4894653.4 
   12300        3.075    1654.4329    146726.92   -1881197.9    93017.382   -1788180.5    4889417.2 
   12400          3.1     1644.878    148091.17   -1880668.1    92480.176   -1788187.9    4884180.9 
   12500        3.125    1635.2376    149325.51   -1880119.6    91938.163   -1788181.4    4878944.7 
   12600         3.15    1625.4749    151010.48   -1879564.6    91389.274   -1788175.3    4873708.5 
   12700        3.175    1615.3992     152121.2     -1878997    90822.786   -1788174.2    4868472.3 
   12800          3.2     1605.791    154031.67   -1878454.4    90282.586   -1788171.8    4863236.1 
   12900        3.225    1595.3033    155412.67     -1877862     89692.93     -1788169    4857999.9 
   13000         3.25    1584.5557    156982.72     -1877263     89088.67   -1788174.3    4852763.6 
   13100        3.275     1573.472    158891.18   -1876631.2     88465.51   -1788165.6    4847527.4 
   13200          3.3    1560.5188    160840.25   -1875898.3    87737.241     -1788161    4842291.2 
   13300        3.325    1548.8607    162864.76   -1875252.6    87081.784   -1788170.8      4837055 
   13400         3.35    1535.3746    164325.99   -1874499.2    86323.554   -1788175.7    4831818.8 
   13500        3.375    1524.0272    166627.22   -1873854.1    85685.568   -1788168.5    4826582.6 
   13600          3.4    1510.4514     168725.3   -1873094.9    84922.291   -1788172.6    4821346.3 
   13700        3.425    1498.4019    170805.63   -1872413.7     84244.83   -1788168.9    4816110.1 
   13800         3.45    1486.0031    172530.51   -1871718.2    83547.734   -1788170.5    4810873.9 
   13900        3.475    1472.5762    174621.23   -1870957.6     82792.83   -1788164.7    4805637.7 
   14000          3.5    1459.3047    176614.74   -1870202.4    82046.665   -1788155.7    4800401.5 
   14100        3.525     1446.238    178250.28   -1869457.9    81312.016   -1788145.9    4795165.3 
   14200         3.55    1431.9204    180134.07   -1868647.2    80507.036   -1788140.1      4789929 
   14300        3.575    1418.9477    181584.78   -1867917.8    79777.669   -1788140.1    4784692.8 
   14400          3.6    1404.1135    183047.55     -1867096    78943.645   -1788152.3    4779456.6 
   14500        3.625    1388.3928    184705.61   -1866217.7    78059.777   -1788157.9    4774220.4 
   14600         3.65    1373.0637    186539.96   -1865363.8    77197.928   -1788165.9    4768984.2 
   14700        3.675    1357.2607    188737.73     -1864479    76309.434   -1788169.6      4763748 
   14800          3.7    1340.0326    190503.58     -1863506    75340.818   -1788165.2    4758511.7 
   14900        3.725    1324.1418    192457.72   -1862624.8    74447.389   -1788177.4    4753275.5 
   15000         3.75     1307.193     195006.5   -1861678.6    73494.472   -1788184.2    4748039.3 
   15100        3.775    1290.2571    197142.65   -1860732.5    72542.283   -1788190.2    4742803.1 
   15200          3.8    1273.2796    199496.85   -1859772.5    71587.753   -1788184.7    4737566.9 
   15300        3.825    1256.7022    201811.91   -1858840.3    70655.721   -1788184.6    4732330.7 
   15400         3.85    1239.2986    204603.43   -1857865.4    69677.238   -1788188.2    4727094.4 
   15500        3.875    1222.9785    206823.98   -1856959.4     68759.67   -1788199.8    4721858.2 
   15600          3.9    1206.0166    209408.45   -1856001.3     67806.02   -1788195.3      4716622 
   15700        3.925    1190.0379    211815.67   -1855107.5    66907.648   -1788199.9    4711385.8 
   15800         3.95    1174.3396    213940.78   -1854233.2     66025.04   -1788208.2    4706149.6 
   15900        3.975    1160.6138    216185.08   -1853462.7    65253.331   -1788209.4    4700913.4 
   16000            4    1149.2115    218115.76   -1852817.8    64612.257   -1788205.6    4695677.1 
   16100        4.025    1139.3198     219467.7   -1852260.7    64056.114   -1788204.6    4690440.9 
   16200         4.05    1131.5952       221353   -1851830.5    63621.812   -1788208.7    4685204.7 
   16300        4.075    1126.0362    222382.81   -1851528.4    63309.273   -1788219.1    4679968.5 
   16400          4.1    1121.3982    223157.08   -1851262.4    63048.507   -1788213.9    4674732.3 
   16500        4.125    1116.0266    224625.86   -1850961.5    62746.502     -1788215    4669496.1 
   16600         4.15    1114.7967    225822.04   -1850895.3    62677.351   -1788217.9    4664259.8 
   16700        4.175    1111.3655    226566.79   -1850707.3    62484.437   -1788222.9    4659023.6 
   16800          4.2    1109.7765    228117.27   -1850625.2      62395.1   -1788230.1    4653787.4 
   16900        4.225     1109.085    228817.57   -1850596.2    62356.223     -1788240    4648551.2 
   17000         4.25    1107.6482    230369.09   -1850517.2    62275.438   -1788241.7      4643315 
   17100        4.275    1109.6543    231791.18   -1850636.6    62388.231   -1788248.3    4638078.7 
   17200          4.3    1111.7668    233410.71   -1850761.1    62507.001   -1788254.1    4632842.5 
   17300        4.325     1114.065    234875.82   -1850888.3    62636.212   -1788252.1    4627606.3 
   17400         4.35    1116.6115    235733.75   -1851036.9    62779.382   -1788257.5    4622370.1 
   17500        4.375     1117.071    238194.51   -1851078.7    62805.221   -1788273.5    4617133.9 
   17600          4.4    1119.0023    239634.72   -1851193.7    62913.802   -1788279.9    4611897.7 
   17700        4.425    1119.5125    241755.51   -1851222.6    62942.486   -1788280.1    4606661.4 
   17800         4.45    1118.4453    244097.88   -1851163.7    62882.486   -1788281.2    4601425.2 
   17900        4.475    1117.7525    246255.75   -1851134.5    62843.534     -1788291      4596189 
   18000          4.5    1113.2598    248655.51   -1850882.5    62590.943   -1788291.5    4590952.8 
   18100        4.525    1109.3241    250619.65   -1850661.1    62369.662   -1788291.4    4585716.6 
   18200         4.55    1102.2382    252343.14   -1850270.5    61971.272   -1788299.3    4580480.4 
   18300        4.575    1096.6156    254345.24   -1849961.4    61655.154   -1788306.3    4575244.1 
   18400          4.6    1089.4191    255884.04   -1849570.1    61250.545   -1788319.6    4570007.9 
   18500        4.625    1080.8499    257649.53   -1849093.6    60768.756   -1788324.8    4564771.7 
   18600         4.65    1072.5966    259110.52   -1848632.7    60304.732     -1788328    4559535.5 
   18700        4.675    1063.6111    260707.28   -1848134.2    59799.535   -1788334.7    4554299.3 
   18800          4.7    1054.6568    262103.47   -1847636.5    59296.099   -1788340.4    4549063.1 
   18900        4.725    1045.8021    263764.47   -1847143.2    58798.258   -1788344.9    4543826.8 
   19000         4.75    1035.6756    265359.16     -1846575    58228.916   -1788346.1    4538590.6 
   19100        4.775    1025.5763    267564.81   -1846018.4      57661.1   -1788357.3    4533354.4 
   19200          4.8     1014.635    269367.98   -1845406.2    57045.948   -1788360.2    4528118.2 
   19300        4.825    1003.5866    271594.84   -1844786.1    56424.769   -1788361.4      4522882 
   19400         4.85    991.26096    273445.32   -1844092.9    55731.786   -1788361.2    4517645.8 
   19500        4.875    979.00445    275608.86   -1843411.4    55042.686   -1788368.7    4512409.5 
   19600          4.9    965.61338    277825.86   -1842670.8    54289.799     -1788381    4507173.3 
   19700        4.925    952.03946    279975.86   -1841913.4    53526.631   -1788386.8    4501937.1 
   19800         4.95    938.64109    282531.72     -1841162    52773.332   -1788388.7    4496700.9 
   19900        4.975    924.19284    285468.65   -1840358.8    51961.007   -1788397.8    4491464.7 
   20000            5    907.95673    288150.98   -1839448.7    51048.162   -1788400.5    4486228.5 
   20100        5.025    893.06519    290391.94     -1838609    50210.913   -1788398.1    4480992.2 
   20200         5.05    876.72071    293496.33   -1837695.4    49291.975   -1788403.5      4475756 
   20300        5.075    860.68873    296563.82   -1836794.9    48390.607   -1788404.3    4470519.8 
   20400          5.1    842.85408    299658.77   -1835793.1    47387.887   -1788405.2    4465283.6 
   20500        5.125    825.15305     302979.9   -1834805.1     46392.68   -1788412.5    4460047.4 
   20600         5.15    807.75879    306021.43   -1833827.9    45414.721   -1788413.2    4454811.2 
   20700        5.175     790.0899    308889.72   -1832829.8    44421.321   -1788408.4    4449574.9 
   20800          5.2    770.97731    312035.19   -1831754.6    43346.751   -1788407.9    4444338.7 
   20900        5.225    752.47999    315181.02   -1830719.6    42306.774   -1788412.9    4439102.5 
   21000         5.25    732.97748    319118.92   -1829636.3    41210.282   -1788426.1    4433866.3 
   21100        5.275    713.59446    322113.72   -1828552.5    40120.508   -1788431.9    4428630.1 
   21200          5.3    694.93988    325422.66   -1827507.4     39071.69   -1788435.7    4423393.9 
   21300        5.325    676.64104    328670.18   -1826483.1    38042.872   -1788440.3    4418157.6 
   21400         5.35    657.97132    332462.66     -1825434    36993.202   -1788440.7    4412921.4 
   21500        5.375    640.14041    335669.34   -1824428.6    35990.692   -1788437.9    4407685.2 
   21600          5.4    623.95756    339309.43   -1823525.8    35080.842     -1788445      4402449 
   21700        5.425    606.01651    342434.97   -1822517.5     34072.14   -1788445.3    4397212.8 
   21800         5.45     593.0451    345787.01     -1821790    33342.847   -1788447.1    4391976.6 
   21900        5.475    578.92566    348870.07   -1820991.8    32549.008   -1788442.8    4386740.3 
   22000          5.5     566.3355     352198.8     -1820289     31841.15   -1788447.8    4381504.1 
   22100        5.525    555.97605    354637.58   -1819697.8    31258.709   -1788439.1    4376267.9 
   22200         5.55    547.03699    357305.07   -1819165.8    30756.127   -1788409.7    4371031.7 
   22300        5.575    540.27149    359527.08   -1818743.3     30375.75   -1788367.6    4365795.5 
   22400          5.6    533.93033    361597.34   -1818322.4     30019.23   -1788303.2    4360559.2 
   22500        5.625    529.53951    363589.22   -1817957.9    29772.364   -1788185.5      4355323 
   22600         5.65    527.31704    365628.56     -1817591     29647.41   -1787943.6    4350086.8 
   22700        5.675     527.1135    367463.69   -1817176.6    29635.966   -1787540.7    4344850.6 
   22800          5.7     530.8698    369359.14   -1816788.5    29847.158   -1786941.4    4339614.4 
   22900        5.725    535.41271    371023.26   -1816330.3    30102.574   -1786227.8    4334378.2 
   23000         5.75    541.08584       372964     -1815891    30421.535   -1785469.5    4329141.9 
   23100        5.775    548.01262    374090.98   -1815518.3     30810.98   -1784707.3    4323905.7 
   23200          5.8      555.301    375902.96   -1815132.2    31220.756   -1783911.4    4318669.5 
   23300        5.825    563.97238    377388.71   -1814774.7    31708.288   -1783066.4    4313433.3 
   23400         5.85    571.72473    378905.05   -1814282.6    32144.149   -1782138.5    4308197.1 
   23500        5.875    581.86455    381029.41   -1813828.5    32714.241   -1781114.3    4302960.9 
   23600          5.9    588.00564    382680.13   -1813094.3    33059.513   -1780034.7    4297724.6 
   23700        5.925    595.57538    384896.04   -1812405.1    33485.107     -1778920    4292488.4 
   23800         5.95    600.68331    386772.83   -1811490.9    33772.291   -1777718.7    4287252.2 
   23900        5.975    606.27029    389224.34   -1810484.9    34086.408   -1776398.5      4282016 
   24000            6    610.59639    391564.33   -1809223.4    34329.635   -1774893.8    4276779.8 
   24100        6.025    617.13977    394184.32   -1807895.8    34697.525   -1773198.3    4271543.6 
   24200         6.05    622.29802    396464.88   -1806279.9    34987.537   -1771292.4    4266307.3 
   24300        6.075    628.88232    399506.98     -1804539    35357.728   -1769181.2    4261071.1 
   24400          6.1    636.42905    402604.11   -1802631.9    35782.028   -1766849.8    4255834.9 
   24500        6.125    645.61537     406042.1   -1800563.6    36298.512   -1764265.1    4250598.7 
   24600         6.15    656.85943    409588.27   -1798389.2    36930.688   -1761458.5    4245362.5 
   24700        6.175    670.45747    412919.57   -1796151.8    37695.212   -1758456.6    4240126.3 
   24800          6.2    684.57657    416909.19   -1793781.4    38489.032   -1755292.4      4234890 
   24900        6.225    699.75181     421092.9   -1791379.2    39342.231   -1752036.9    4229653.8 
   25000         6.25    715.42391    425523.95   -1788957.6    40223.365   -1748734.3    4224417.6 
   25100        6.275    732.87708    429844.35   -1786545.8    41204.637   -1745341.2    4219181.4 
   25200          6.3    750.08397    434668.88   -1784026.3    42172.063   -1741854.2    4213945.2 
   25300        6.325    768.01508    439423.52   -1781523.4    43180.206   -1738343.2      4208709 
   25400         6.35    787.49583    443746.76   -1779043.2    44275.474   -1734767.7    4203472.7 
   25500        6.375    805.96146    448823.99   -1776473.5     45313.67   -1731159.8    4198236.5 
   25600          6.4    825.91333    453768.05   -1773955.3    46435.426   -1727519.9    4193000.3 
   25700        6.425    846.65026    458970.54     -1771467    47601.321   -1723865.7    4187764.1 
   25800         6.45    868.33036    463903.49   -1769010.2    48820.244   -1720189.9    4182527.9 
   25900        6.475    891.90793    468959.09   -1766631.3    50145.848   -1716485.5    4177291.7 
   26000          6.5     915.9279     474038.1   -1764276.8    51496.326   -1712780.4    4172055.4 
   26100        6.525    941.49951    478907.62   -1761991.3    52934.042   -1709057.3    4166819.2 
   26200         6.55    969.14934    483805.34   -1759795.8    54488.602   -1705307.2      4161583 
   26300        6.575    999.15179    488909.12   -1757728.5    56175.433   -1701553.1    4156346.8 
   26400          6.6    1029.8147    493123.57   -1755705.2      57899.4   -1697805.8    4151110.6 
   26500        6.625    1060.8808    497671.18   -1753710.1    59646.031   -1694064.1    4145874.4 
   26600         6.65     1092.806    502252.89   -1751713.5    61440.965   -1690272.5    4140638.1 
   26700        6.675    1125.8517    506983.21   -1749783.2    63298.896   -1686484.3    4135401.9 
   26800          6.7    1156.7386    511668.92   -1747741.4    65035.456   -1682705.9    4130165.7 
   26900        6.725     1187.919    517079.93   -1745755.1    66788.515   -1678966.6    4124929.5 
   27000         6.75    1217.0547    521850.53   -1743657.8    68426.614   -1675231.2    4119693.3 
   27100        6.775    1243.9695    527232.95   -1741468.5    69939.848   -1671528.6    4114457.1 
   27200          6.8    1269.3771    533047.54   -1739209.5    71368.343   -1667841.2    4109220.8 
   27300        6.825    1296.0165    537996.89   -1737029.2    72866.096   -1664163.1    4103984.6 
   27400         6.85    1328.4402    542892.28   -1735215.6    74689.054   -1660526.6    4098748.4 
   27500        6.875    1369.8972    546078.58   -1733964.5    77019.896   -1656944.6    4093512.2 
   27600          6.9    1403.5554    549406.69   -1732288.1    78912.265   -1653375.8      4088276 
   27700        6.925    1439.2253    553087.69   -1730776.8    80917.739   -1649859.1    4083039.7 
   27800         6.95     1479.764    556318.06   -1729610.1    83196.952   -1646413.2    4077803.5 
   27900        6.975    1514.8762    561042.19     -1728177    85171.067   -1643005.9    4072567.3 
   28000            7    1556.9611    563916.73   -1727201.3    87537.215   -1639664.1    4067331.1 
   28100        7.025    1591.8229    566820.25   -1725866.1    89497.252   -1636368.8    4062094.9 
   28200         7.05    1624.5595    570306.98   -1724435.3    91337.804   -1633097.5    4056858.7 
   28300        7.075    1643.3989    574598.16   -1722281.1    92397.016     -1629884    4051622.4 
   28400          7.1    1676.1715    579182.46     -1720958    94239.593   -1626718.4    4046386.2 
   28500        7.125    1695.3676    583558.46   -1718881.4     95318.86   -1623562.6      4041150 
   28600         7.15    1726.9807    587574.66   -1717532.7    97096.244   -1620436.4    4035913.8 
   28700        7.175    1754.0836     591801.4   -1715945.2    98620.058   -1617325.1    4030677.6 
   28800          7.2    1781.6037    595785.24   -1714412.8    100167.32   -1614245.5    4025441.4 
   28900        7.225    1804.2525    600730.82   -1712595.3    101440.71   -1611154.6    4020205.1 
   29000         7.25    1824.5095    605665.85   -1710648.4    102579.62   -1608068.8    4014968.9 
   29100        7.275    1839.9297    611127.39   -1708419.4    103446.59   -1604972.8    4009732.7 
   29200          7.3     1857.761    616848.04   -1706274.6    104449.12   -1601825.5    4004496.5 
   29300        7.325    1874.7662    622531.56   -1704048.8    105405.21   -1598643.6    3999260.3 
   29400         7.35     1891.208    628517.79   -1701798.7    106329.62   -1595469.1    3994024.1 
   29500        7.375    1906.6082     635140.5   -1699494.3    107195.47   -1592298.8    3988787.8 
   29600          7.4    1920.7975    641471.17   -1697161.7    107993.23   -1589168.4    3983551.6 
   29700        7.425    1933.9704    648079.35   -1694849.3    108733.85   -1586115.5    3978315.4 
   29800         7.45    1945.7012    654727.83   -1692521.7    109393.39   -1583128.4    3973079.2 
   29900        7.475    1953.9035    660759.19     -1690123    109854.55   -1580268.5      3967843 
   30000          7.5    1959.1119    667670.79   -1687700.6    110147.39   -1577553.2    3962606.8 
   30100        7.525    1958.9487    674920.65     -1685082    110138.21   -1574943.8    3957370.5 
   30200         7.55    1956.2862    681591.74   -1682445.4    109988.51   -1572456.9    3952134.3 
   30300        7.575    1950.5604    687798.53   -1679778.7     109666.6   -1570112.1    3946898.1 
   30400          7.6    1941.8781    694261.44     -1677064    109178.45   -1567885.6    3941661.9 
   30500        7.625    1931.5443    700716.89   -1674373.8    108597.45   -1565776.4    3936425.7 
   30600         7.65    1918.6742    706683.72   -1671598.2    107873.85   -1563724.3    3931189.5 
   30700        7.675    1908.2457    712895.17   -1668993.3    107287.53   -1561705.8    3925953.2 
   30800          7.7    1896.5621    719060.52     -1666340    106630.64   -1559709.3      3920717 
   30900        7.725    1890.4711    724227.01   -1663972.7    106288.19   -1557684.5    3915480.8 
   31000         7.75    1884.6253    730111.02   -1661551.9    105959.52   -1555592.4    3910244.6 
   31100        7.775    1880.4245    735508.07   -1659262.3    105723.34     -1553539    3905008.4 
   31200          7.8    1883.1583    739816.37   -1657435.8    105877.04   -1551558.7    3899772.2 
   31300        7.825    1887.6749    743058.92   -1655805.5    106130.97   -1549674.6    3894535.9 
   31400         7.85    1879.7848    746093.43   -1653573.6    105687.37   -1547886.2    3889299.7 
   31500        7.875    1884.3395     749140.3   -1652062.9    105943.45   -1546119.4    3884063.5 
   31600          7.9    1898.9794    752624.13   -1650978.1    106766.55   -1544211.5    3878827.3 
   31700        7.925    1906.2005    756529.13   -1649181.5    107172.54   -1542008.9    3873591.1 
   31800         7.95    1933.3151    759261.13   -1648202.8    108697.01   -1539505.8    3868354.9 
   31900        7.975    1956.4316    761932.17   -1646851.7    109996.69     -1536855    3863118.6 
   32000            8    1968.8657    764786.55     -1644989    110695.78   -1534293.2    3857882.4 
   32100        8.025    2002.6147    768889.92   -1644525.8    112593.25   -1531932.6    3852646.2 
   32200         8.05    2013.7785    772672.96   -1642929.8    113220.91   -1529708.8      3847410 
   32300        8.075     2032.845       776080     -1641822    114292.89   -1527529.1    3842173.8 
   32400          8.1    2059.9521    778524.31   -1641076.9    115816.94   -1525259.9    3836937.6 
   32500        8.125    2078.9547    782076.75   -1639681.9    116885.32   -1522796.6    3831701.3 
   32600         8.15    2113.3591    786168.57   -1638958.5    118819.64   -1520138.9    3826465.1 
   32700        8.175    2144.8775    790883.93   -1637978.2    120591.71   -1517386.5    3821228.9 
   32800          8.2    2175.4319    795673.38   -1636916.5    122309.58   -1514606.9    3815992.7 
   32900        8.225    2209.6982    799676.06   -1636066.8    124236.13   -1511830.7    3810756.5 
   33000         8.25    2226.9166    804916.53   -1634222.1    125204.21   -1509017.9    3805520.3 
   33100        8.275    2254.7185    811071.49   -1632849.5    126767.32   -1506082.2      3800284 
   33200          8.3    2272.2294    818522.62   -1630716.4    127751.83   -1502964.6    3795047.8 
   33300        8.325    2294.7166    826242.86   -1628719.9    129016.13   -1499703.8    3789811.6 
   33400         8.35    2315.3995    833561.13   -1626656.5    130178.99   -1496477.5    3784575.4 
   33500        8.375     2330.071    840501.34   -1624350.9    131003.86     -1493347    3779339.2 
   33600          8.4    2345.4156     849012.9   -1622008.8    131866.59   -1490142.3    3774102.9 
   33700        8.425    2360.5698    857064.51   -1619487.7     132718.6   -1486769.1    3768866.7 
   33800         8.45    2381.5381    864725.18   -1617150.2    133897.51   -1483252.7    3763630.5 
   33900        8.475    2397.0166     872597.2   -1614456.3    134767.76   -1479688.5    3758394.3 
   34000          8.5     2415.503    879571.74   -1611988.7    135807.12   -1476181.6    3753158.1 
   34100        8.525    2431.7293    887608.51   -1609364.7    136719.41   -1472645.3    3747921.9 
   34200         8.55    2449.6162    895587.06   -1606745.8    137725.07   -1469020.8    3742685.6 
   34300        8.575     2466.731    902508.08   -1604042.4    138687.32   -1465355.1    3737449.4 
   34400          8.6    2485.1094    909745.31   -1601426.6    139720.61     -1461706    3732213.2 
   34500        8.625    2501.6746    916276.15   -1598691.4    140651.96   -1458039.5      3726977 
   34600         8.65    2516.8674    924223.33   -1595846.5    141506.14   -1454340.3    3721740.8 
   34700        8.675    2530.7434    931296.64   -1592947.9    142286.29   -1450661.6    3716504.6 
   34800          8.7     2543.926    939249.54   -1590007.6    143027.46   -1446980.1    3711268.3 
   34900        8.725    2560.9295    949156.87   -1587229.6    143983.45   -1443246.1    3706032.1 
   35000         8.75    2580.1579    961064.69   -1584516.4    145064.53   -1439451.9    3700795.9 
   35100        8.775    2594.4326    971818.41   -1581464.3     145867.1   -1435597.2    3695559.7 
   35200          8.8    2600.1282    979388.73   -1577919.4    146187.33   -1431732.1    3690323.5 
   35300        8.825    2605.5831    984556.76   -1574356.2    146494.02   -1427862.2    3685087.3 
   35400         8.85    2614.3309    989288.39   -1570875.1    146985.85   -1423889.2      3679851 
   35500        8.875    2622.7988    994033.56   -1567279.4    147461.94   -1419817.4    3674614.8 
   35600          8.9    2637.3204    999797.12   -1564017.4    148278.39     -1415739    3669378.6 
   35700        8.925    2648.3583    1004818.5   -1560529.1    148898.97   -1411630.1    3664142.4 
   35800         8.95    2667.5434    1010350.3   -1557472.8    149977.62   -1407495.2    3658906.2 
   35900        8.975    2683.2712    1016936.2   -1554215.8    150861.88   -1403353.9      3653670 
   36000            9    2702.9526    1023504.6     -1551159    151968.43   -1399190.5    3648433.7 
   36100        9.025     2720.861    1029652.7   -1548077.8     152975.3   -1395102.5    3643197.5 
   36200         9.05    2738.5006    1035655.5   -1544987.2    153967.05   -1391020.1    3637961.3 
   36300        9.075    2755.3123    1042543.4   -1541911.3    154912.26     -1386999    3632725.1 
   36400          9.1    2768.8337      1050112   -1538739.5    155672.47   -1383067.1    3627488.9 
   36500        9.125    2782.5213    1058288.9   -1535612.5    156442.03   -1379170.5    3622252.7 
   36600         9.15    2790.2329    1067308.5   -1532231.5     156875.6   -1375355.9    3617016.4 
   36700        9.175    2793.2255    1075283.1   -1528708.7    157043.86   -1371664.8    3611780.2 
   36800          9.2    2794.4383      1084981   -1525185.6    157112.05   -1368073.6      3606544 
   36900        9.225    2790.3802      1093982   -1521504.2    156883.89   -1364620.3    3601307.8 
   37000         9.25    2784.2595    1102896.8   -1517839.7    156539.76   -1361299.9    3596071.6 
   37100        9.275    2773.6272    1111432.1   -1514058.1    155941.98   -1358116.1    3590835.4 
   37200          9.3    2758.5165      1119518   -1510114.7    155092.41   -1355022.3    3585599.1 
   37300        9.325    2747.1608    1129424.4   -1506458.8    154453.95   -1352004.8    3580362.9 
   37400         9.35    2729.2503    1137976.5   -1502562.8    153446.97   -1349115.8    3575126.7 
   37500        9.375    2712.1519      1146988   -1498763.1    152485.65   -1346277.4    3569890.5 
   37600          9.4     2694.953      1154314   -1495011.6    151518.67     -1343493    3564654.3 
   37700        9.425    2680.8498    1161816.9   -1491485.4    150725.74   -1340759.7    3559418.1 
   37800         9.45    2660.8144    1168413.1   -1487633.2    149599.29   -1338033.9    3554181.8 
   37900        9.475    2641.0684    1173848.9   -1483839.4    148489.11   -1335350.3    3548945.6 
   38000          9.5    2616.6872    1179822.1   -1479913.8    147118.32   -1332795.5    3543709.4 
   38100        9.525    2589.9258    1187037.5   -1475918.7    145613.72     -1330305    3538473.2 
   38200         9.55    2563.9915    1193374.6   -1472088.7    144155.61   -1327933.1      3533237 
   38300        9.575    2528.9002    1199009.1   -1467849.4    142182.67   -1325666.7    3528000.8 
   38400          9.6    2491.0508    1205763.7   -1463564.2    140054.65   -1323509.6    3522764.5 
   38500        9.625    2455.6352    1211804.9   -1459455.9    138063.48   -1321392.4    3517528.3 
   38600         9.65    2415.6444    1218556.6   -1455070.6    135815.07   -1319255.5    3512292.1 
   38700        9.675    2380.6744    1224936.1   -1450962.3    133848.95   -1317113.4    3507055.9 
   38800          9.7    2342.9818      1232031   -1446692.1    131729.75   -1314962.4    3501819.7 
   38900        9.725    2307.1134    1237434.4   -1442547.3    129713.12   -1312834.2    3496583.4 
   39000         9.75    2272.6563    1243737.1   -1438418.3    127775.83   -1310642.4    3491347.2 
   39100        9.775    2231.8562    1251481.6   -1434002.5    125481.92   -1308520.6      3486111 
   39200          9.8    2191.5218    1257637.5   -1429683.3     123214.2   -1306469.1    3480874.8 
   39300        9.825    2147.1133    1265121.4   -1425210.1    120717.41   -1304492.7    3475638.6 
   39400         9.85    2103.0011    1272966.4   -1420837.9    118237.29   -1302600.6    3470402.4 
   39500        9.875    2050.2888    1279990.1   -1416015.8    115273.64   -1300742.2    3465166.1 
   39600          9.9    1997.7286    1288224.2     -1411213    112318.54   -1298894.5    3459929.9 
   39700        9.925    1947.4592    1296038.3   -1406519.2    109492.24   -1297026.9    3454693.7 
   39800         9.95    1893.0146    1303934.9   -1401646.9    106431.19   -1295215.7    3449457.5 
   39900        9.975    1838.8725    1312029.3   -1396739.1    103387.15     -1293352    3444221.3 
   40000           10    1786.7635    1319804.1   -1391940.3    100457.42   -1291482.9    3438985.1 
   40100       10.025    1734.0386      1327860   -1387123.3    97493.063   -1289630.2    3433748.8 
   40200        10.05     1686.728    1335692.7   -1382554.8    94833.112   -1287721.7    3428512.6 
   40300       10.075    1642.2894      1342018   -1378057.2    92334.636   -1285722.5    3423276.4 
   40400         10.1    1599.8017    1348371.1   -1373504.2    89945.847   -1283558.4    3418040.2 
   40500       10.125    1562.1564    1354852.9   -1369083.5     87829.31   -1281254.2      3412804 
   40600        10.15    1531.5076    1361922.5   -1364837.9     86106.14   -1278731.7    3407567.8 
   40700       10.175     1502.555    1369068.5   -1360588.4    84478.332   -1276110.1    3402331.5 
   40800         10.2    1479.4637    1376550.1   -1356715.8    83180.065   -1273535.7    3397095.3 
   40900       10.225    1454.9243    1385784.8   -1352840.9    81800.387   -1271040.5    3391859.1 
   41000        10.25    1432.1922    1393805.1     -1349142    80522.315   -1268619.7    3386622.9 
   41100       10.275    1406.3933    1403271.8   -1345267.1    79071.823   -1266195.2    3381386.7 
   41200         10.3    1386.5613    1411295.6   -1341686.2    77956.807   -1263729.4    3376150.5 
   41300       10.325    1372.9872    1419278.6   -1338261.4    77193.629   -1261067.8    3370914.2 
   41400        10.35    1359.1528    1427794.8   -1334715.3    76415.813   -1258299.5      3365678 
   41500       10.375    1352.7575    1437234.5   -1331467.6    76056.248   -1255411.4    3360441.8 
   41600         10.4    1344.7356    1445148.2   -1328173.9    75605.236   -1252568.7    3355205.6 
   41700       10.425    1340.1597    1453454.9   -1325070.5    75347.964   -1249722.5    3349969.4 
   41800        10.45    1331.3595    1462270.7   -1321710.2    74853.186     -1246857    3344733.2 
   41900       10.475    1326.3538    1471379.5   -1318405.1    74571.749   -1243833.3    3339496.9 
   42000         10.5    1321.1188    1481498.5   -1314870.6    74277.424   -1240593.1    3334260.7 
   42100       10.525     1316.078    1492446.2   -1311213.9    73994.015   -1237219.9    3329024.5 
   42200        10.55    1313.6342    1502894.4   -1307609.3    73856.617   -1233752.7    3323788.3 
   42300       10.575    1308.0729      1515099   -1303816.1    73543.944   -1230272.1    3318552.1 
   42400         10.6    1300.5912    1525957.3   -1299781.9    73123.295   -1226658.7    3313315.9 
   42500       10.625    1293.4155    1538217.6   -1295643.5    72719.856   -1222923.6    3308079.6 
   42600        10.65    1282.2756    1549630.7   -1291153.1    72093.539   -1219059.6    3302843.4 
   42700       10.675    1278.2946    1561666.6   -1286913.7    71869.714     -1215044    3297607.2 
   42800         10.7      1270.25    1572983.9     -1282354    71417.418   -1210936.6      3292371 
   42900       10.725    1264.0474    1583517.6   -1277670.4    71068.692   -1206601.7    3287134.8 
   43000        10.75    1259.6426    1592170.2   -1272811.5    70821.039   -1201990.5    3281898.6 
   43100       10.775    1254.6977    1600692.1   -1267553.1    70543.023   -1197010.1    3276662.3 
   43200         10.8    1256.4804    1608656.2   -1262401.2    70643.253     -1191758    3271426.1 
   43300       10.825    1256.4312    1617255.6     -1256942    70640.487   -1186301.5    3266189.9 
   43400        10.85     1257.698    1624729.2   -1251510.7    70711.707     -1180799    3260953.7 
   43500       10.875    1255.1766    1634347.8   -1245916.2    70569.945   -1175346.3    3255717.5 
   43600         10.9    1257.1051      1643056   -1240440.7    70678.376   -1169762.3    3250481.3 
   43700       10.925    1259.4546    1651829.4   -1234720.3    70810.471   -1163909.8      3245245 
   43800        10.95    1266.0828    1661689.7   -1228936.1     71183.13   -1157752.9    3240008.8 
   43900       10.975    1275.2817    1671482.3   -1222955.8    71700.316   -1151255.5    3234772.6 
   44000           11    1285.8884    1681536.3   -1216884.7    72296.662   -1144588.1    3229536.4 
   44100       11.025    1299.7871    1692515.3     -1210793    73078.088   -1137714.9    3224300.2 
   44200        11.05    1323.1684    1701945.9   -1204861.7    74392.658   -1130469.1    3219063.9 
   44300       11.075    1346.1738    1713577.2   -1198532.8    75686.094   -1122846.7    3213827.7 
   44400         11.1    1374.3297    1724777.9   -1192140.7    77269.107   -1114871.6    3208591.5 
   44500       11.125    1407.0464      1737221   -1185907.2    79108.541   -1106798.7    3203355.3 
   44600        11.15    1438.5265    1749375.8   -1179475.9     80878.45   -1098597.4    3198119.1 
   44700       11.175     1477.624    1762086.9   -1173207.2    83076.635   -1090130.6    3192882.9 
   44800         11.2    1514.7969    1776149.6   -1166827.9    85166.614   -1081661.3    3187646.6 
   44900       11.225    1550.5747    1790151.9   -1160310.1    87178.151   -1073131.9    3182410.4 
   45000        11.25    1584.9664    1803744.1   -1153828.2    89111.762   -1064716.4    3177174.2 
   45100       11.275    1616.0145    1816554.1   -1147182.6    90857.382   -1056325.2      3171938 
   45200         11.3    1651.5687    1829204.4   -1140686.3    92856.348   -1047829.9    3166701.8 
   45300       11.325    1690.1595    1842367.7   -1134328.9    95026.042   -1039302.9    3161465.6 
   45400        11.35    1725.2952    1853906.1   -1127692.3    97001.481   -1030690.8    3156229.3 
   45500       11.375    1762.7295    1864540.5   -1121126.5    99106.155   -1022020.3    3150993.1 
   45600         11.4    1798.2538    1877850.2   -1114423.5    101103.44   -1013320.1    3145756.9 
   45700       11.425    1835.8186      1889921   -1107862.5    103215.46     -1004647    3140520.7 
   45800        11.45    1873.6553    1901578.2   -1101130.8    105342.75   -995788.09    3135284.5 
   45900       11.475    1904.8548    1915255.5   -1094060.4    107096.88   -986963.51    3130048.3 
   46000         11.5    1938.3974    1927868.4   -1087147.5    108982.76    -978164.7      3124812 
   46100       11.525    1965.4485    1940037.8   -1079808.2    110503.65   -969304.54    3119575.8 
   46200        11.55    1993.9162    1953834.1   -1072638.1    112104.19   -960533.89    3114339.6 
   46300       11.575    2015.5249    1967199.6     -1065115     113319.1   -951795.85    3109103.4 
   46400         11.6    2033.5102    1982637.5   -1057484.7    114330.29   -943154.41    3103867.2 
   46500       11.625    2052.8699    1995496.4   -1049931.8    115418.76   -934513.04      3098631 
   46600        11.65    2063.4393    2010309.5     -1041920       116013   -925906.96    3093394.7 
   46700       11.675      2075.95      2024250   -1034053.4    116716.39   -917337.02    3088158.5 
   46800         11.7    2081.8541    2039357.9   -1026013.7    117048.34   -908965.31    3082922.3 
   46900       11.725    2086.6844    2054826.7   -1017923.1    117319.91   -900603.22    3077686.1 
   47000        11.75    2088.6726    2070049.7   -1009849.7    117431.69   -892418.01    3072449.9 
   47100       11.775    2089.7288    2085143.9   -1001836.6    117491.08   -884345.52    3067213.7 
   47200         11.8    2086.3385    2100670.9   -993649.33    117300.46   -876348.87    3061977.4 
   47300       11.825    2087.2033    2116068.1   -985711.61    117349.09   -868362.52    3056741.2 
   47400        11.85    2090.4531    2131538.4   -977893.44     117531.8   -860361.64      3051505 
   47500       11.875    2096.8481    2147805.2   -970324.66    117891.35   -852433.31    3046268.8 
   47600         11.9    2109.0166    2162823.1   -963079.15     118575.5   -844503.65    3041032.6 
   47700       11.925    2124.5848    2178196.8   -956003.45    119450.79   -836552.66    3035796.4 
   47800        11.95    2142.0907      2193295   -949077.95    120435.03   -828642.92    3030560.1 
   47900       11.975    2167.7115    2210433.2   -942577.82    121875.51    -820702.3    3025323.9 
   48000           12    2196.0655    2226001.5   -936111.08    123469.66   -812641.42    3020087.7 
   48100       12.025    2225.4601    2241414.1      -929751    125122.32   -804628.69    3014851.5 
   48200        12.05    2261.4778    2256252.4    -923703.8    127147.34   -796556.46    3009615.3 
   48300       12.075    2295.7452    2271717.6   -917527.41    129073.96   -788453.45    3004379.1 
   48400         12.1    2335.9176    2287890.9   -911517.24    131332.58   -780184.66    2999142.8 
   48500       12.125    2377.9428    2304449.2   -905436.69    133695.37   -771741.32    2993906.6 
   48600        12.15    2420.9226    2320997.7   -899206.31    136111.83   -763094.49    2988670.4 
   48700       12.175    2474.2053    2336904.2    -893237.8    139107.54   -754130.26    2983434.2 
   48800         12.2    2529.6766    2354973.2   -887175.45    142226.32   -744949.13      2978198 
   48900       12.225    2580.9206    2372524.9   -880746.77    145107.41   -735639.35    2972961.8 
   49000        12.25    2637.3185    2390783.5   -874445.56    148278.28   -726167.28    2967725.5 
   49100       12.275     2688.539    2407527.2   -867780.38    151158.05   -716622.33    2962489.3 
   49200         12.3    2738.9536    2426181.6   -860932.86    153992.52   -706940.34    2957253.1 
   49300       12.325    2781.7251    2443878.1   -853606.52    156397.27   -697209.25    2952016.9 
   49400        12.35    2828.2224    2462623.3   -846293.29    159011.49    -687281.8    2946780.7 
   49500       12.375    2868.1491    2481946.7   -838656.91    161256.29   -677400.62    2941544.5 
   49600         12.4    2907.0081    2501016.5    -830831.7    163441.07   -667390.63    2936308.2 
   49700       12.425    2941.8775      2520467   -822658.91    165401.54   -657257.37      2931072 
   49800        12.45    2978.9113    2541205.1   -814573.09    167483.69   -647089.39    2925835.8 
   49900       12.475    3012.9933    2561864.7   -806213.26    169399.89   -636813.38    2920599.6 
   50000         12.5     3045.663    2582135.4   -797841.56    171236.68   -626604.87    2915363.4 
Loop time of 2128.54 on 96 procs for 50000 steps with 434962 atoms

Performance: 0.507 ns/day, 47.301 hours/ns, 23.490 timesteps/s
100.0% CPU use with 96 MPI tasks x 1 OpenMP threads

MPI task timing breakdown:
Section |  min time  |  avg time  |  max time  |%varavg| %total
---------------------------------------------------------------
Pair    | 1110.7     | 1313.8     | 2032.8     | 711.1 | 61.72
Neigh   | 13.687     | 16.276     | 18.126     |  36.8 |  0.76
Comm    | 37.545     | 231.92     | 794.58     |1354.0 | 10.90
Output  | 8.8759     | 8.8772     | 8.9549     |   0.3 |  0.42
Modify  | 27.833     | 553.44     | 774.56     |1262.4 | 26.00
Other   |            | 4.204      |            |       |  0.20

Nlocal:        4530.85 ave        4757 max        4299 min
Histogram: 3 9 17 15 11 11 2 3 9 16
Nghost:        12834.1 ave       13438 max       12029 min
Histogram: 2 4 5 14 19 10 9 11 12 10
Neighs:         0.00000 ave           0 max           0 min
Histogram: 96 0 0 0 0 0 0 0 0 0
FullNghs:  1.54398e+06 ave 1.74304e+06 max 1.23025e+06 min
Histogram: 12 0 0 0 0 31 19 15 7 12

Total # of neighbors = 1.4822244e+08
Ave neighs/atom = 340.77102
Neighbor list builds = 536
Dangerous builds = 0
Total wall time: 0:35:33
