LAMMPS (24 Mar 2022)
OMP_NUM_THREADS environment is not set. Defaulting to 1 thread. (src/comm.cpp:98)
  using 1 OpenMP thread(s) per MPI task
# Compute elastic constant tensor for a crystal
#
# Written by Aidan Thompson (Sandia, athomps@sandia.gov)
#
#  This script uses the following three include files.
#
#   init.mod      (must be modified for different crystal structures)
# 	       	  Define units, deformation parameters and initial
#		  configuration of the atoms and simulation cell.
#
#
#   potential.mod    (must be modified for different pair styles)
# 		     Define pair style and other attributes
#		     not stored in restart file
#
#
#   displace.mod    (displace.mod should not need to be modified)
# 		    Perform positive and negative box displacements
# 		    in direction ${dir} and size ${up}.
# 		    It uses the resultant changes
#		    in stress to compute one
# 		    row of the elastic stiffness tensor
#
#		    Inputs variables:
#		    	   dir = the Voigt deformation component
#		    		    (1,2,3,4,5,6)
#		    Global constants:
#       	    	   up = the deformation magnitude (strain units)
#       		   cfac = conversion from LAMMPS pressure units to
#               	   output units for elastic constants
#
#
#  To run this on a different system, it should only be necessary to
#  modify the files init.mod and potential.mod. In order to calculate
#  the elastic constants correctly, care must be taken to specify
#  the correct units in init.mod (units, cfac and cunits). It is also
#  important to verify that the minimization of energy w.r.t atom
#  positions in the deformed cell is fully converged.
#  One indication of this is that the elastic constants are insensitive
#  to the choice of the variable ${up} in init.mod. Another is to check
#  the final max and two-norm forces reported in the log file. If you know
#  that minimization is not required, you can set maxiter = 0.0 in
#  init.mod.
#

include init.mod
# NOTE: This script can be modified for different atomic structures,
# units, etc. See in.elastic for more info.
#

# Define the finite deformation size. Try several values of this
# variable to verify that results do not depend on it.
variable up equal 1.0e-6

# Define the amount of random jiggle for atoms
# This prevents atoms from staying on saddle points
variable atomjiggle equal 1.0e-5

# Uncomment one of these blocks, depending on what units
# you are using in LAMMPS and for output

# metal units, elastic constants in eV/A^3
#units		metal
#variable cfac equal 6.2414e-7
#variable cunits string eV/A^3

# metal units, elastic constants in GPa
units		metal
variable cfac equal 1.0e-4
variable cunits string GPa

# real units, elastic constants in GPa
#units		real
#variable cfac equal 1.01325e-4
#variable cunits string GPa

# Define minimization parameters
variable etol equal 0.0
variable ftol equal 1.0e-10
variable maxiter equal 100
variable maxeval equal 1000
variable dmax equal 1.0e-2

# generate the box and atom positions using a diamond lattice

boundary	p p p


read_data NiO_npt_equil.data
Reading data file ...
  triclinic box = (0.43437442 0.43437442 0.43437442) to (24.865343 24.865343 24.865343) with tilt (0 0 0)
  1 by 2 by 3 MPI processor grid
  reading atoms ...
  1728 atoms
  reading velocities ...
  1728 velocities
  read_data CPU = 0.010 seconds


# Need to set mass to something, just to satisfy LAMMPS
mass 2 15.999

include potential.mod
# NOTE: This script can be modified for different pair styles
# See in.elastic for more info.

# Choose potential
pair_style hybrid/overlay eam/alloy edip/multi
pair_coeff * * eam/alloy Mishin-Ni-Al-2009.eam.alloy Ni NULL
pair_coeff * * edip/multi NiAlO.edip Ni O



# Setup neighbor style
neighbor 1.0 nsq
neigh_modify once no every 1 delay 0 check yes

# Setup minimization style
min_style	     cg
min_modify	     dmax ${dmax} line quadratic
min_modify	     dmax 0.01 line quadratic

# Setup output
thermo		1
thermo_style custom step temp pe press pxx pyy pzz pxy pxz pyz lx ly lz vol
thermo_modify norm no

minimize 0.0 1.0e-10 10000 1000000

CITE-CITE-CITE-CITE-CITE-CITE-CITE-CITE-CITE-CITE-CITE-CITE-CITE

Your simulation uses code contributions which should be cited:

- @article{cjiang2012
 author    = {Jian, Chao and Morgan, Dane, and Szlufarska, Izabella},
 title     = {Carbon tri-interstitial defect: A model for DII center},
 journal   = {Physical Review B},
 volume    = {86},
 pages     = {144118},
 year      = {2012},
}

@article{lpizzagalli2010,
 author    = {G. Lucas, M. Bertolus, and L. Pizzagalli},
 journal   = {J. Phys. : Condens. Matter 22},
 volume    = {22},
 pages     = {035802},
 year      = {2010},
}

CITE-CITE-CITE-CITE-CITE-CITE-CITE-CITE-CITE-CITE-CITE-CITE-CITE

Neighbor list info ...
  update every 1 steps, delay 0 steps, check yes
  max neighbors/atom: 2000, page size: 100000
  master list distance cutoff = 7.28721
  ghost atom cutoff = 7.28721
  3 neighbor lists, perpetual/occasional/extra = 3 0 0
  (1) pair eam/alloy, perpetual, skip from (3)
      attributes: half, newton on
      pair build: skip
      stencil: none
      bin: none
  (2) pair edip/multi, perpetual
      attributes: full, newton on
      pair build: full/nsq
      stencil: none
      bin: none
  (3) neighbor class addition, perpetual, half/full from (2)
      attributes: half, newton on
      pair build: halffull/newton
      stencil: none
      bin: none
Per MPI rank memory allocation (min/avg/max) = 5.8 | 5.802 | 5.804 Mbytes
   Step          Temp          PotEng         Press           Pxx            Pyy            Pzz            Pxy            Pxz            Pyz             Lx             Ly             Lz           Volume    
         0   294.73417     -12201.878     -14662.313      53576.896     -49511.273     -48052.562     -78977.197      1811.404       29.715026      24.430968      24.430968      24.430968      14582.166    
         1   294.73417     -12216.244     -41711.57       24177.592     -74087.723     -75224.579     -78471.477      848.79817      677.07476      24.430968      24.430968      24.430968      14582.166    
         2   294.73417     -12228.955     -44721.017      19451.344     -75675.553     -77938.841     -80191.305      713.91767      889.07349      24.430968      24.430968      24.430968      14582.166    
         3   294.73417     -12239.858     -40058.593      22961.213     -70323.325     -72813.668     -81646.709      754.23236      1067.6283      24.430968      24.430968      24.430968      14582.166    
         4   294.73417     -12248.299     -42897.12       19643.816     -73078.652     -75256.525     -81250.613      888.17369      1095.9894      24.430968      24.430968      24.430968      14582.166    
         5   294.73417     -12254.74      -44027.938      18843.195     -74492.534     -76434.476     -80582.147      1212.9117      874.70787      24.430968      24.430968      24.430968      14582.166    
         6   294.73417     -12258.629     -47017.18       16769.438     -77910.202     -79910.778     -79781.275      1556.1655      652.73895      24.430968      24.430968      24.430968      14582.166    
         7   294.73417     -12261.085     -42843.426      21641.519     -73989.752     -76182.044     -79813.298      1805.7228      249.29823      24.430968      24.430968      24.430968      14582.166    
         8   294.73417     -12262.439     -53071.334      12143.183     -84515.734     -86841.45      -78421.755      1923.6169      237.85196      24.430968      24.430968      24.430968      14582.166    
         9   294.73417     -12264.129     -49924.424      15896.943     -81508.874     -84161.341     -78407.491      2067.049      -22.908615      24.430968      24.430968      24.430968      14582.166    
        10   294.73417     -12264.578     -41784.68       24273.49      -73428.313     -76199.216     -79254.407      2165.9813     -230.42813      24.430968      24.430968      24.430968      14582.166    
        11   294.73417     -12265.564     -43046.364      23493.729     -74803.01      -77829.811     -79071.778      2187.8266     -288.65255      24.430968      24.430968      24.430968      14582.166    
        12   294.73417     -12265.812     -49399.306      17295.03      -81225.141     -84267.807     -78405.148      2149.2403     -219.24995      24.430968      24.430968      24.430968      14582.166    
        13   294.73417     -12266.514     -48072.237      19123.603     -80080.645     -83259.669     -78410.772      2225.8644     -259.89551      24.430968      24.430968      24.430968      14582.166    
        14   294.73417     -12266.717     -43771.998      23519.359     -75797.202     -79038.152     -78815.169      2250.2275     -323.08855      24.430968      24.430968      24.430968      14582.166    
        15   294.73417     -12267.309     -43915.155      23878.642     -76105.602     -79518.506     -78761.114      2264.0727     -376.91205      24.430968      24.430968      24.430968      14582.166    
        16   294.73417     -12267.525     -41908.531      26019.524     -74071.717     -77673.4       -78816.5        2288.2747     -275.49659      24.430968      24.430968      24.430968      14582.166    
        17   294.73417     -12267.966     -41509.604      26878.203     -73835.864     -77571.152     -78606.744      2425.4676     -175.6699       24.430968      24.430968      24.430968      14582.166    
        18   294.73417     -12268.143     -41670.855      26936.632     -74126.252     -77822.946     -78623.179      2450.6068     -400.37723      24.430968      24.430968      24.430968      14582.166    
        19   294.73417     -12268.248     -39131.125      29609.192     -71558.94      -75443.628     -78892.604      2307.898      -485.30613      24.430968      24.430968      24.430968      14582.166    
        20   294.73417     -12268.595     -41540.285      27721.988     -74017.581     -78325.261     -78742.32       2230.3863     -419.11984      24.430968      24.430968      24.430968      14582.166    
        21   294.73417     -12269.012     -36207.356      33554.864     -68836.637     -73340.296     -78825.669      2545.7571     -322.14963      24.430968      24.430968      24.430968      14582.166    
        22   294.73417     -12269.079     -37303.604      32447.181     -69910.743     -74447.249     -78375.692      2486.5184     -567.70859      24.430968      24.430968      24.430968      14582.166    
        23   294.73417     -12269.178     -35294.415      34772.106     -67942.346     -72713.004     -77833.44       2516.2305     -1039.5962      24.430968      24.430968      24.430968      14582.166    
        24   294.73417     -12269.406     -29748.442      41172.436     -62576.409     -67841.353     -78253.715      2699.9338     -965.48009      24.430968      24.430968      24.430968      14582.166    
        25   294.73417     -12269.613     -29612.095      41817.912     -62380.265     -68273.933     -78616.153      2595.7919     -477.88449      24.430968      24.430968      24.430968      14582.166    
        26   294.73417     -12269.669     -30198.57       41046.215     -62808.566     -68833.36      -78496.174      2516.2408     -674.17246      24.430968      24.430968      24.430968      14582.166    
        27   294.73417     -12269.713     -28826.895      42286.884     -61321.295     -67446.274     -78419.844      2489.0795     -935.47873      24.430968      24.430968      24.430968      14582.166    
        28   294.73417     -12269.752     -29132.179      42049.405     -61539.944     -67905.997     -78364.882      2409.4722     -780.03842      24.430968      24.430968      24.430968      14582.166    
        29   294.73417     -12269.84      -29185.331      42067.028     -61297.527     -68325.495     -78649.909      2281.5557     -418.87602      24.430968      24.430968      24.430968      14582.166    
        30   294.73417     -12269.925     -26650.171      44588.982     -58573.966     -65965.528     -79014.952      2160.3521     -696.52524      24.430968      24.430968      24.430968      14582.166    
        31   294.73417     -12269.983     -26841.166      44392.441     -58686.845     -66229.093     -78876.978      1952.1066     -1002.3815      24.430968      24.430968      24.430968      14582.166    
        32   294.73417     -12270.009     -27783.279      43433.283     -59566.963     -67216.159     -78753.936      1954.6725     -1030.2874      24.430968      24.430968      24.430968      14582.166    
        33   294.73417     -12270.034     -26536.221      44575.778     -58184.868     -65999.573     -78885.511      2004.7534     -1005.8841      24.430968      24.430968      24.430968      14582.166    
        34   294.73417     -12270.062     -25785.976      45170.223     -57216.159     -65311.993     -79022.159      1907.7828     -1133.8629      24.430968      24.430968      24.430968      14582.166    
        35   294.73417     -12270.092     -26564.06       44246.944     -57748.658     -66190.466     -79050.204      1750.6031     -1387.3272      24.430968      24.430968      24.430968      14582.166    
        36   294.73417     -12270.135     -26103.752      44489.012     -56999.312     -65800.955     -79076.259      1721.9226     -1400.1756      24.430968      24.430968      24.430968      14582.166    
        37   294.73417     -12270.175     -24961.796      45330.365     -55558.432     -64657.32      -79087.801      1753.5783     -1259.8153      24.430968      24.430968      24.430968      14582.166    
        38   294.73417     -12270.21      -24882.602      45213.757     -55227.982     -64633.58      -79266.587      1729.5479     -1327.4714      24.430968      24.430968      24.430968      14582.166    
        39   294.73417     -12270.228     -24958.693      45025.242     -55135.768     -64765.554     -79413.747      1592.5343     -1476.9166      24.430968      24.430968      24.430968      14582.166    
        40   294.73417     -12270.25      -24203.084      45530.841     -54071.084     -64069.008     -79507.424      1467.7646     -1513.6463      24.430968      24.430968      24.430968      14582.166    
        41   294.73417     -12270.267     -23785.056      45744.103     -53430.921     -63668.349     -79524.125      1556.8599     -1387.3073      24.430968      24.430968      24.430968      14582.166    
        42   294.73417     -12270.29      -23709.066      45610.034     -53145.685     -63591.547     -79563.356      1606.9003     -1324.0562      24.430968      24.430968      24.430968      14582.166    
        43   294.73417     -12270.311     -22966.918      46165.198     -52184.904     -62881.048     -79649.537      1436.5616     -1508.727       24.430968      24.430968      24.430968      14582.166    
        44   294.73417     -12270.332     -22504.474      46362.157     -51386.882     -62488.697     -79733.628      1312.4245     -1592.3982      24.430968      24.430968      24.430968      14582.166    
        45   294.73417     -12270.347     -22552.219      46099.398     -51157.506     -62598.551     -79740.741      1334.9965     -1424.6018      24.430968      24.430968      24.430968      14582.166    
        46   294.73417     -12270.36      -21831.775      46634.233     -50219.036     -61910.523     -79726.225      1356.2905     -1398.2588      24.430968      24.430968      24.430968      14582.166    
        47   294.73417     -12270.374     -21292.523      46995.494     -49477.631     -61395.432     -79732.734      1359.3864     -1598.667       24.430968      24.430968      24.430968      14582.166    
        48   294.73417     -12270.386     -21545.439      46600.381     -49578.214     -61658.483     -79739.242      1270.78       -1660.2273      24.430968      24.430968      24.430968      14582.166    
        49   294.73417     -12270.404     -20795.893      47091.966     -48541.672     -60937.974     -79798.686      1097.8007     -1546.7299      24.430968      24.430968      24.430968      14582.166    
        50   294.73417     -12270.417     -20317.383      47343.252     -47812.367     -60483.035     -79794.938      1101.2881     -1556.8477      24.430968      24.430968      24.430968      14582.166    
        51   294.73417     -12270.431     -20340.213      47068.991     -47536.306     -60553.325     -79698.926      1136.0133     -1702.0476      24.430968      24.430968      24.430968      14582.166    
        52   294.73417     -12270.441     -19559.867      47688.803     -46483.251     -59885.153     -79705.173      1045.685      -1761.9863      24.430968      24.430968      24.430968      14582.166    
        53   294.73417     -12270.455     -19234.584      47768.621     -45769.581     -59702.793     -79765.733      851.42822     -1688.3209      24.430968      24.430968      24.430968      14582.166    
        54   294.73417     -12270.466     -19498.799      47328.98      -45873.218     -59952.16      -79744.609      794.08165     -1647.9336      24.430968      24.430968      24.430968      14582.166    
        55   294.73417     -12270.475     -18721.598      47951.014     -44976.249     -59139.557     -79709.961      807.19498     -1716.5798      24.430968      24.430968      24.430968      14582.166    
        56   294.73417     -12270.485     -18367.147      48086.837     -44366.124     -58822.155     -79669.984      746.3551      -1792.6887      24.430968      24.430968      24.430968      14582.166    
        57   294.73417     -12270.494     -18688.37       47568.493     -44433.799     -59199.804     -79629.88       636.59213     -1770.8909      24.430968      24.430968      24.430968      14582.166    
        58   294.73417     -12270.504     -18036.745      48026.709     -43497.04      -58639.903     -79618.75       601.43199     -1715.1221      24.430968      24.430968      24.430968      14582.166    
        59   294.73417     -12270.511     -17940.606      48003.668     -43263.266     -58562.22      -79570.11       637.18049     -1753.2692      24.430968      24.430968      24.430968      14582.166    
        60   294.73417     -12270.519     -18101.739      47672.941     -43298.71      -58679.449     -79470.763      639.95914     -1853.455       24.430968      24.430968      24.430968      14582.166    
        61   294.73417     -12270.525     -17402.301      48256.464     -42485.318     -57978.049     -79460.098      607.05859     -1831.5725      24.430968      24.430968      24.430968      14582.166    
        62   294.73417     -12270.532     -17478.543      48045.328     -42387.797     -58093.16      -79424.882      562.29561     -1776.3136      24.430968      24.430968      24.430968      14582.166    
        63   294.73417     -12270.538     -17962.437      47386.797     -42644.294     -58629.813     -79380.884      544.45742     -1869.9447      24.430968      24.430968      24.430968      14582.166    
        64   294.73417     -12270.544     -17179.376      48026.286     -41689.518     -57874.897     -79415.07       574.06708     -1913.9643      24.430968      24.430968      24.430968      14582.166    
        65   294.73417     -12270.551     -17197.426      47862.469     -41545.086     -57909.661     -79393.861      571.36884     -1781.2542      24.430968      24.430968      24.430968      14582.166    
        66   294.73417     -12270.555     -17595.256      47359.972     -41805.268     -58340.473     -79345.399      525.65312     -1776.5917      24.430968      24.430968      24.430968      14582.166    
        67   294.73417     -12270.561     -17024.671      47822.037     -41040.479     -57855.572     -79343.839      495.09631     -1911.4019      24.430968      24.430968      24.430968      14582.166    
        68   294.73417     -12270.565     -17032.115      47728.234     -40898.554     -57926.024     -79314.535      503.48617     -1843.9721      24.430968      24.430968      24.430968      14582.166    
        69   294.73417     -12270.57      -17134.48       47535.011     -40832.549     -58105.902     -79276.159      508.18218     -1719.4925      24.430968      24.430968      24.430968      14582.166    
        70   294.73417     -12270.574     -16669.731      47958.925     -40280.532     -57687.585     -79301.52       483.44255     -1810.4143      24.430968      24.430968      24.430968      14582.166    
        71   294.73417     -12270.578     -16851.874      47702.976     -40376.104     -57882.495     -79274.132      446.23993     -1877.9928      24.430968      24.430968      24.430968      14582.166    
        72   294.73417     -12270.582     -16949.613      47524.504     -40369.449     -58003.894     -79229.284      428.65061     -1755.1339      24.430968      24.430968      24.430968      14582.166    
        73   294.73417     -12270.586     -16444.028      48015.838     -39783.759     -57564.164     -79235.498      423.95356     -1678.043       24.430968      24.430968      24.430968      14582.166    
        74   294.73417     -12270.59      -16390.925      48023.944     -39573.89      -57622.829     -79179.183      401.21262     -1707.3594      24.430968      24.430968      24.430968      14582.166    
        75   294.73417     -12270.593     -16430.935      47934.341     -39523.744     -57703.401     -79150.734      385.74141     -1713.3009      24.430968      24.430968      24.430968      14582.166    
        76   294.73417     -12270.596     -16169.343      48151.904     -39176.342     -57483.592     -79171.781      365.58619     -1641.2603      24.430968      24.430968      24.430968      14582.166    
        77   294.73417     -12270.6       -16176.384      48093.837     -39100.384     -57522.605     -79154.219      344.97808     -1607.3048      24.430968      24.430968      24.430968      14582.166    
        78   294.73417     -12270.603     -16016.29       48175.248     -38813.173     -57410.946     -79120.869      330.59241     -1638.9654      24.430968      24.430968      24.430968      14582.166    
        79   294.73417     -12270.607     -15726.206      48436.014     -38387.087     -57227.545     -79102.831      347.08096     -1660.0043      24.430968      24.430968      24.430968      14582.166    
        80   294.73417     -12270.609     -15765.165      48393.812     -38328.933     -57360.375     -79060.183      354.15655     -1633.9583      24.430968      24.430968      24.430968      14582.166    
        81   294.73417     -12270.613     -15654.121      48491.742     -38141.866     -57312.239     -79034.776      309.52818     -1608.6175      24.430968      24.430968      24.430968      14582.166    
        82   294.73417     -12270.615     -15466.691      48653.803     -37917.106     -57136.769     -79048.926      277.24153     -1635.8259      24.430968      24.430968      24.430968      14582.166    
        83   294.73417     -12270.619     -15429.182      48648.559     -37822.198     -57113.907     -79023.06       285.14124     -1669.8958      24.430968      24.430968      24.430968      14582.166    
        84   294.73417     -12270.622     -15353.898      48713.103     -37663.815     -57110.983     -78992.837      303.96854     -1597.1699      24.430968      24.430968      24.430968      14582.166    
        85   294.73417     -12270.625     -15223.205      48854.633     -37446.432     -57077.814     -79009.176      287.34564     -1524.8841      24.430968      24.430968      24.430968      14582.166    
        86   294.73417     -12270.628     -15123.433      48975.965     -37290.34      -57055.923     -79026.427      250.61561     -1552.8892      24.430968      24.430968      24.430968      14582.166    
        87   294.73417     -12270.63      -15075.74       49027.534     -37215.507     -57039.247     -79023.437      248.27471     -1558.1184      24.430968      24.430968      24.430968      14582.166    
        88   294.73417     -12270.633     -15044.997      49020.01      -37130.087     -57024.914     -79038.963      262.88034     -1508.6797      24.430968      24.430968      24.430968      14582.166    
        89   294.73417     -12270.635     -14997.398      49033.246     -37016.229     -57009.211     -79038.237      234.57435     -1505.8837      24.430968      24.430968      24.430968      14582.166    
        90   294.73417     -12270.637     -14937.241      49086.309     -36885.446     -57012.587     -79017.642      173.04593     -1519.6199      24.430968      24.430968      24.430968      14582.166    
        91   294.73417     -12270.64      -14939.649      49097.433     -36863.349     -57053.031     -79008.892      163.18982     -1505.9632      24.430968      24.430968      24.430968      14582.166    
        92   294.73417     -12270.642     -14863.244      49167.69      -36765.651     -56991.77      -78990.887      171.17854     -1503.462       24.430968      24.430968      24.430968      14582.166    
        93   294.73417     -12270.644     -14720.951      49288.973     -36614.822     -56837.006     -78975.904      148.06433     -1538.2534      24.430968      24.430968      24.430968      14582.166    
        94   294.73417     -12270.646     -14757.587      49235.911     -36643.392     -56865.281     -78959.904      116.1322      -1549.6662      24.430968      24.430968      24.430968      14582.166    
        95   294.73417     -12270.648     -14767.599      49211.418     -36621.848     -56892.366     -78932.161      116.77053     -1489.8413      24.430968      24.430968      24.430968      14582.166    
        96   294.73417     -12270.649     -14630.69       49347.498     -36462.778     -56776.79      -78927.994      142.33647     -1476.3366      24.430968      24.430968      24.430968      14582.166    
        97   294.73417     -12270.651     -14645.823      49326.188     -36457.867     -56805.79      -78933.464      145.97202     -1546.9415      24.430968      24.430968      24.430968      14582.166    
        98   294.73417     -12270.653     -14656.436      49279.147     -36456.959     -56791.497     -78934.363      110.99725     -1553.5408      24.430968      24.430968      24.430968      14582.166    
        99   294.73417     -12270.654     -14469.104      49418.96      -36276.56      -56549.714     -78945.001      99.230424     -1510.7282      24.430968      24.430968      24.430968      14582.166    
       100   294.73417     -12270.656     -14463.997      49396.152     -36271.943     -56516.2       -78950.489      132.87633     -1527.6935      24.430968      24.430968      24.430968      14582.166    
       101   294.73417     -12270.657     -14454.776      49392.834     -36245.341     -56511.821     -78951.108      155.87926     -1554.5461      24.430968      24.430968      24.430968      14582.166    
       102   294.73417     -12270.658     -14292.652      49572.997     -36079.736     -56371.215     -78947.171      146.94547     -1531.0607      24.430968      24.430968      24.430968      14582.166    
       103   294.73417     -12270.659     -14383.944      49479.119     -36176.161     -56454.79      -78935.622      135.0594      -1510.4733      24.430968      24.430968      24.430968      14582.166    
       104   294.73417     -12270.66      -14373.775      49440.963     -36161.419     -56400.868     -78954.018      146.80346     -1513.1451      24.430968      24.430968      24.430968      14582.166    
       105   294.73417     -12270.661     -14171.839      49610.373     -35964.477     -56161.412     -78983.97       166.47578     -1529.2823      24.430968      24.430968      24.430968      14582.166    
       106   294.73417     -12270.662     -14231.972      49523.804     -36030.047     -56189.673     -78987.178      165.78559     -1538.0738      24.430968      24.430968      24.430968      14582.166    
       107   294.73417     -12270.663     -14221.09       49533.946     -36013.351     -56183.866     -78984.385      161.39199     -1526.2489      24.430968      24.430968      24.430968      14582.166    
       108   294.73417     -12270.664     -14061.333      49699.788     -35861.682     -56022.104     -78993.63       170.62404     -1530.2702      24.430968      24.430968      24.430968      14582.166    
       109   294.73417     -12270.664     -14135.816      49586.853     -35949.38      -56044.921     -79000.733      169.51137     -1561.0145      24.430968      24.430968      24.430968      14582.166    
       110   294.73417     -12270.665     -14062.821      49609.567     -35877.912     -55920.119     -79014.41       164.95729     -1576.4968      24.430968      24.430968      24.430968      14582.166    
       111   294.73417     -12270.666     -13916.853      49725.631     -35736.656     -55739.535     -79013.362      161.55134     -1555.8132      24.430968      24.430968      24.430968      14582.166    
       112   294.73417     -12270.666     -14041.091      49585.596     -35863.948     -55844.92      -78995.426      156.1797      -1543.6704      24.430968      24.430968      24.430968      14582.166    
       113   294.73417     -12270.667     -13960.761      49649.288     -35783.791     -55747.781     -78999.193      159.8761      -1564.5041      24.430968      24.430968      24.430968      14582.166    
       114   294.73417     -12270.668     -13812.198      49773.144     -35640.461     -55569.276     -79011.529      158.04208     -1569.1311      24.430968      24.430968      24.430968      14582.166    
       115   294.73417     -12270.668     -13901.266      49623.022     -35725.064     -55601.758     -79009.046      142.06597     -1551.3004      24.430968      24.430968      24.430968      14582.166    
       116   294.73417     -12270.669     -13825.356      49629.972     -35634.968     -55471.072     -79013.355      136.58173     -1563.5543      24.430968      24.430968      24.430968      14582.166    
       117   294.73417     -12270.669     -13736.342      49691.198     -35547.79      -55352.434     -79019.964      138.067       -1578.2549      24.430968      24.430968      24.430968      14582.166    
       118   294.73417     -12270.67      -13869.861      49525.727     -35686.556     -55448.754     -79024.067      136.47577     -1565.906       24.430968      24.430968      24.430968      14582.166    
       119   294.73417     -12270.671     -13754.623      49590.587     -35563.432     -55291.025     -79033.633      138.76892     -1579.702       24.430968      24.430968      24.430968      14582.166    
       120   294.73417     -12270.672     -13615.206      49646.306     -35413.609     -55078.316     -79036.333      137.65444     -1614.8091      24.430968      24.430968      24.430968      14582.166    
       121   294.73417     -12270.672     -13812.34       49389.372     -35608.492     -55217.9       -79026.285      141.60051     -1600.5675      24.430968      24.430968      24.430968      14582.166    
       122   294.73417     -12270.673     -13683.922      49435.549     -35475.528     -55011.786     -79033.472      165.77308     -1588.5058      24.430968      24.430968      24.430968      14582.166    
       123   294.73417     -12270.674     -13407.7        49645.086     -35181.557     -54686.63      -79052.093      180.81913     -1619.8506      24.430968      24.430968      24.430968      14582.166    
       124   294.73417     -12270.675     -13635.766      49342.171     -35374.517     -54874.953     -79044.821      189.1898      -1636.9785      24.430968      24.430968      24.430968      14582.166    
       125   294.73417     -12270.676     -13680.741      49140.512     -35359.313     -54823.423     -79037.509      219.81644     -1616.4047      24.430968      24.430968      24.430968      14582.166    
       126   294.73417     -12270.678     -13382.815      49296.759     -35017.861     -54427.344     -79069.28       238.1738      -1624.2294      24.430968      24.430968      24.430968      14582.166    
       127   294.73417     -12270.679     -13435.005      49127.71      -35037.58      -54395.144     -79099.584      252.47827     -1684.6728      24.430968      24.430968      24.430968      14582.166    
       128   294.73417     -12270.68      -13479.456      49039.465     -35063.038     -54414.795     -79087.145      276.37461     -1682.7483      24.430968      24.430968      24.430968      14582.166    
       129   294.73417     -12270.681     -13329.343      49146.002     -34884.237     -54249.794     -79090.148      294.94779     -1642.0683      24.430968      24.430968      24.430968      14582.166    
       130   294.73417     -12270.682     -13365.762      49055.469     -34888.267     -54264.487     -79088.993      305.39926     -1653.8302      24.430968      24.430968      24.430968      14582.166    
       131   294.73417     -12270.682     -13381.297      48999.297     -34890.534     -54252.655     -79074.524      311.48276     -1670.7736      24.430968      24.430968      24.430968      14582.166    
       132   294.73417     -12270.683     -13322.114      49016.615     -34817.549     -54165.407     -79078.799      321.66389     -1653.6093      24.430968      24.430968      24.430968      14582.166    
       133   294.73417     -12270.684     -13373.84       48946.372     -34849.799     -54218.092     -79070.664      339.09358     -1654.5693      24.430968      24.430968      24.430968      14582.166    
       134   294.73417     -12270.684     -13337.486      48983.647     -34795.742     -54200.362     -79071.201      340.61532     -1673.6341      24.430968      24.430968      24.430968      14582.166    
       135   294.73417     -12270.685     -13324.836      48998.291     -34761.239     -54211.558     -79080.398      336.68498     -1704.9191      24.430968      24.430968      24.430968      14582.166    
       136   294.73417     -12270.685     -13361.093      48949.881     -34780.105     -54253.054     -79069.95       347.23726     -1714.32        24.430968      24.430968      24.430968      14582.166    
       137   294.73417     -12270.686     -13323.694      48985.885     -34728.993     -54227.974     -79068.002      356.39838     -1724.7381      24.430968      24.430968      24.430968      14582.166    
       138   294.73417     -12270.686     -13378.688      48956.733     -34775.532     -54317.266     -79067.883      356.12999     -1753.8355      24.430968      24.430968      24.430968      14582.166    
       139   294.73417     -12270.686     -13376.824      48985.862     -34766.999     -54349.336     -79073.253      360.66627     -1773.7232      24.430968      24.430968      24.430968      14582.166    
       140   294.73417     -12270.687     -13355.14       49034.957     -34726.732     -54373.645     -79084          364.52744     -1798.0279      24.430968      24.430968      24.430968      14582.166    
       141   294.73417     -12270.687     -13430.428      48971.515     -34778.43      -54484.368     -79080.22       363.76368     -1814.7582      24.430968      24.430968      24.430968      14582.166    
       142   294.73417     -12270.687     -13410.357      49002.359     -34735.555     -54497.874     -79088.799      364.27557     -1833.7155      24.430968      24.430968      24.430968      14582.166    
       143   294.73417     -12270.688     -13391.401      49037.939     -34705.014     -54507.128     -79100.289      360.3768      -1852.5232      24.430968      24.430968      24.430968      14582.166    
       144   294.73417     -12270.688     -13466.254      48976.025     -34767.278     -54607.509     -79094.913      360.6662      -1862.8247      24.430968      24.430968      24.430968      14582.166    
       145   294.73417     -12270.688     -13483.98       48958.304     -34753.442     -54656.802     -79084.181      364.13008     -1873.2475      24.430968      24.430968      24.430968      14582.166    
       146   294.73417     -12270.688     -13453.421      48977.415     -34692.903     -54644.774     -79082.693      357.39302     -1886.7317      24.430968      24.430968      24.430968      14582.166    
       147   294.73417     -12270.689     -13517.559      48912.609     -34739.159     -54726.127     -79079.908      354.50055     -1897.9368      24.430968      24.430968      24.430968      14582.166    
       148   294.73417     -12270.689     -13560.517      48877.837     -34765.934     -54793.454     -79074.448      354.75502     -1901.1149      24.430968      24.430968      24.430968      14582.166    
       149   294.73417     -12270.689     -13510.1        48929.437     -34699.172     -54760.564     -79067.214      350.34984     -1912.9196      24.430968      24.430968      24.430968      14582.166    
       150   294.73417     -12270.689     -13584.176      48854.361     -34747.792     -54859.098     -79050.135      337.17498     -1921.5296      24.430968      24.430968      24.430968      14582.166    
       151   294.73417     -12270.69      -13603.616      48822.093     -34733.577     -54899.365     -79046.194      324.35713     -1903.6238      24.430968      24.430968      24.430968      14582.166    
       152   294.73417     -12270.69      -13589.923      48820.749     -34696.534     -54893.983     -79045.326      324.47827     -1905.3649      24.430968      24.430968      24.430968      14582.166    
       153   294.73417     -12270.69      -13658.633      48745.171     -34743.317     -54977.752     -79037.813      323.44615     -1919.1897      24.430968      24.430968      24.430968      14582.166    
       154   294.73417     -12270.69      -13623.908      48778.806     -34688.7       -54961.83      -79035.89       322.79145     -1911.1683      24.430968      24.430968      24.430968      14582.166    
       155   294.73417     -12270.69      -13659.236      48736.01      -34703.567     -55010.15      -79031.067      321.49419     -1897.4898      24.430968      24.430968      24.430968      14582.166    
       156   294.73417     -12270.69      -13665.013      48718.405     -34685.327     -55028.117     -79028.966      319.79825     -1909.628       24.430968      24.430968      24.430968      14582.166    
       157   294.73417     -12270.69      -13658.328      48711.599     -34661.817     -55024.765     -79018.863      320.11534     -1910.4914      24.430968      24.430968      24.430968      14582.166    
       158   294.73417     -12270.691     -13686.167      48671.628     -34675.428     -55054.7       -79011.602      318.85596     -1892.519       24.430968      24.430968      24.430968      14582.166    
       159   294.73417     -12270.691     -13669.158      48685.278     -34648.17      -55044.58      -79015.735      319.04547     -1901.6483      24.430968      24.430968      24.430968      14582.166    
       160   294.73417     -12270.691     -13691.323      48656.287     -34659.406     -55070.851     -79012.603      318.40717     -1910.1828      24.430968      24.430968      24.430968      14582.166    
       161   294.73417     -12270.691     -13666.333      48668.428     -34618.828     -55048.6       -79008.93       324.60061     -1906.7849      24.430968      24.430968      24.430968      14582.166    
       162   294.73417     -12270.691     -13678.957      48647.863     -34624.268     -55060.465     -79002.716      327.46838     -1904.2515      24.430968      24.430968      24.430968      14582.166    
       163   294.73417     -12270.691     -13653.064      48663.494     -34590.512     -55032.175     -79001.943      329.63978     -1907.4031      24.430968      24.430968      24.430968      14582.166    
       164   294.73417     -12270.691     -13650.827      48657.562     -34580.808     -55029.237     -78996.099      338.22161     -1910.3508      24.430968      24.430968      24.430968      14582.166    
       165   294.73417     -12270.691     -13668.423      48633.609     -34591.367     -55047.512     -78991.426      343.78521     -1905.6731      24.430968      24.430968      24.430968      14582.166    
       166   294.73417     -12270.691     -13628.361      48660.026     -34541.946     -55003.162     -78992.236      349.03957     -1909.3956      24.430968      24.430968      24.430968      14582.166    
       167   294.73417     -12270.691     -13628.884      48648.75      -34536.872     -54998.529     -78992.211      349.04188     -1916.8294      24.430968      24.430968      24.430968      14582.166    
       168   294.73417     -12270.691     -13600.241      48671.48      -34506.627     -54965.577     -78996.798      348.75437     -1917.2565      24.430968      24.430968      24.430968      14582.166    
       169   294.73417     -12270.692     -13606.76       48657.693     -34513.261     -54964.711     -78993.725      350.57715     -1907.9532      24.430968      24.430968      24.430968      14582.166    
       170   294.73417     -12270.692     -13589.448      48671.691     -34493.386     -54946.648     -78996.624      352.2692      -1907.8654      24.430968      24.430968      24.430968      14582.166    
       171   294.73417     -12270.692     -13583.115      48672.873     -34482.499     -54939.72      -78995.965      351.97688     -1912.7729      24.430968      24.430968      24.430968      14582.166    
       172   294.73417     -12270.692     -13590.132      48660.849     -34487.153     -54944.093     -78993.764      350.18288     -1900.5615      24.430968      24.430968      24.430968      14582.166    
       173   294.73417     -12270.692     -13555.542      48698.272     -34458.491     -54906.407     -78998.709      352.62731     -1899.4678      24.430968      24.430968      24.430968      14582.166    
       174   294.73417     -12270.692     -13557.769      48705.476     -34473.86      -54904.923     -78995.131      353.33511     -1907.6321      24.430968      24.430968      24.430968      14582.166    
       175   294.73417     -12270.692     -13540.462      48733.332     -34462.372     -54892.345     -79000.193      354.68431     -1902.0418      24.430968      24.430968      24.430968      14582.166    
       176   294.73417     -12270.692     -13548.438      48728.805     -34470.263     -54903.856     -79001.715      355.03498     -1896.6584      24.430968      24.430968      24.430968      14582.166    
       177   294.73417     -12270.692     -13539.328      48743.689     -34463.67      -54898.003     -79005.052      350.26712     -1897.2944      24.430968      24.430968      24.430968      14582.166    
       178   294.73417     -12270.692     -13535.282      48757.346     -34467.525     -54895.666     -79010.038      348.68471     -1891.8473      24.430968      24.430968      24.430968      14582.166    
       179   294.73417     -12270.692     -13534.826      48764.673     -34475.498     -54893.654     -79008.653      343.48311     -1884.6269      24.430968      24.430968      24.430968      14582.166    
       180   294.73417     -12270.692     -13519.02       48789.7       -34469.4       -54877.36      -79012.325      335.58209     -1884.7878      24.430968      24.430968      24.430968      14582.166    
       181   294.73417     -12270.692     -13540.211      48774.219     -34498.792     -54896.06      -79007.902      329.18256     -1881.3467      24.430968      24.430968      24.430968      14582.166    
       182   294.73417     -12270.692     -13519.826      48799.522     -34486.205     -54872.797     -79007.862      322.5506      -1875.5224      24.430968      24.430968      24.430968      14582.166    
       183   294.73417     -12270.692     -13525.157      48802.433     -34497.938     -54879.966     -79012.118      314.00495     -1873.6747      24.430968      24.430968      24.430968      14582.166    
       184   294.73417     -12270.692     -13532.332      48803.348     -34512.286     -54888.057     -79011.061      305.63764     -1877.0082      24.430968      24.430968      24.430968      14582.166    
       185   294.73417     -12270.692     -13519.121      48826.933     -34510.554     -54873.743     -79013.495      298.22822     -1876.3184      24.430968      24.430968      24.430968      14582.166    
       186   294.73417     -12270.692     -13538.776      48815.826     -34540.297     -54891.857     -79014.534      292.72641     -1871.0265      24.430968      24.430968      24.430968      14582.166    
       187   294.73417     -12270.692     -13525.881      48836.495     -34537.019     -54877.12      -79021.234      289.33365     -1870.7275      24.430968      24.430968      24.430968      14582.166    
       188   294.73417     -12270.693     -13532.355      48838.968     -34554.94      -54881.095     -79027.33       283.56844     -1874.5514      24.430968      24.430968      24.430968      14582.166    
       189   294.73417     -12270.693     -13535.689      48845.325     -34567.142     -54885.25      -79029.491      280.40612     -1873.8743      24.430968      24.430968      24.430968      14582.166    
       190   294.73417     -12270.693     -13532.867      48859.474     -34573.69      -54884.385     -79033.942      277.39595     -1865.9702      24.430968      24.430968      24.430968      14582.166    
       191   294.73417     -12270.693     -13549.229      48850.228     -34598.78      -54899.134     -79034.91       272.98598     -1869.354       24.430968      24.430968      24.430968      14582.166    
       192   294.73417     -12270.693     -13543.45       48864.272     -34605.126     -54889.497     -79038.127      271.11571     -1870.4282      24.430968      24.430968      24.430968      14582.166    
       193   294.73417     -12270.693     -13564.934      48851.073     -34645.091     -54900.784     -79040.158      269.04412     -1863.6069      24.430968      24.430968      24.430968      14582.166    
       194   294.73417     -12270.693     -13555.876      48864.982     -34645.89      -54886.719     -79045.849      268.35055     -1863.9513      24.430968      24.430968      24.430968      14582.166    
       195   294.73417     -12270.693     -13569.602      48856.746     -34666.667     -54898.887     -79049.405      266.37216     -1864.3634      24.430968      24.430968      24.430968      14582.166    
       196   294.73417     -12270.693     -13590.263      48840.462     -34695.354     -54915.896     -79049.377      264.95477     -1859.5036      24.430968      24.430968      24.430968      14582.166    
       197   294.73417     -12270.693     -13572.284      48861.794     -34686.84      -54891.806     -79052.414      264.89098     -1851.5729      24.430968      24.430968      24.430968      14582.166    
       198   294.73417     -12270.693     -13605.731      48832.948     -34732.182     -54917.958     -79050.726      264.20995     -1845.6864      24.430968      24.430968      24.430968      14582.166    
       199   294.73417     -12270.693     -13606.523      48836.467     -34743.929     -54912.107     -79052.797      264.61758     -1841.2561      24.430968      24.430968      24.430968      14582.166    
       200   294.73417     -12270.693     -13614.944      48830.178     -34759.319     -54915.69      -79053.839      264.5953      -1839.3564      24.430968      24.430968      24.430968      14582.166    
       201   294.73417     -12270.693     -13634.848      48813.957     -34786.148     -54932.353     -79053.449      264.8385      -1837.0248      24.430968      24.430968      24.430968      14582.166    
       202   294.73417     -12270.693     -13624.482      48828.21      -34784.235     -54917.42      -79056.141      265.7264      -1833.1247      24.430968      24.430968      24.430968      14582.166    
       203   294.73417     -12270.693     -13650.162      48806.887     -34821.12      -54936.253     -79054.707      267.90511     -1831.3846      24.430968      24.430968      24.430968      14582.166    
       204   294.73417     -12270.693     -13657.587      48808.749     -34845.239     -54936.27      -79055.394      270.47901     -1832.1477      24.430968      24.430968      24.430968      14582.166    
       205   294.73417     -12270.693     -13657.133      48814.958     -34855.131     -54931.226     -79056.195      270.76633     -1830.3118      24.430968      24.430968      24.430968      14582.166    
       206   294.73417     -12270.693     -13676.651      48802.591     -34885.43      -54947.114     -79055.522      271.46498     -1822.6611      24.430968      24.430968      24.430968      14582.166    
       207   294.73417     -12270.693     -13685.515      48801.096     -34905.651     -54951.989     -79057.442      272.05551     -1821.4424      24.430968      24.430968      24.430968      14582.166    
       208   294.73417     -12270.693     -13692.152      48798.806     -34922.05      -54953.211     -79057.639      271.40024     -1820.4506      24.430968      24.430968      24.430968      14582.166    
       209   294.73417     -12270.693     -13696.247      48803.671     -34939.428     -54952.983     -79056.763      271.37877     -1815.7061      24.430968      24.430968      24.430968      14582.166    
       210   294.73417     -12270.693     -13709.592      48797.962     -34961.77      -54964.968     -79055.642      269.69205     -1812.9251      24.430968      24.430968      24.430968      14582.166    
       211   294.73417     -12270.693     -13708.977      48804.93      -34969.456     -54962.405     -79057.244      270.64143     -1811.7147      24.430968      24.430968      24.430968      14582.166    
       212   294.73417     -12270.693     -13718.628      48802.094     -34987.381     -54970.597     -79058.055      274.26314     -1812.6961      24.430968      24.430968      24.430968      14582.166    
       213   294.73417     -12270.693     -13726.039      48798.737     -35000.818     -54976.036     -79057          274.02606     -1809.7026      24.430968      24.430968      24.430968      14582.166    
       214   294.73417     -12270.693     -13726.39       48803.769     -35008.274     -54974.664     -79055.608      273.68956     -1806.2715      24.430968      24.430968      24.430968      14582.166    
       215   294.73417     -12270.693     -13745.232      48790.11      -35031.423     -54994.384     -79054.151      273.6746      -1807.7208      24.430968      24.430968      24.430968      14582.166    
       216   294.73417     -12270.693     -13735.92       48803.026     -35025.699     -54985.088     -79054.836      274.83856     -1808.8515      24.430968      24.430968      24.430968      14582.166    
       217   294.73417     -12270.693     -13748.85       48791.883     -35041.242     -54997.19      -79052.532      276.24685     -1806.9018      24.430968      24.430968      24.430968      14582.166    
       218   294.73417     -12270.693     -13757.307      48784.568     -35052.171     -55004.318     -79051.889      276.26307     -1808.4398      24.430968      24.430968      24.430968      14582.166    
       219   294.73417     -12270.693     -13759.561      48783.621     -35057.322     -55004.98      -79052.388      277.55751     -1811.1435      24.430968      24.430968      24.430968      14582.166    
       220   294.73417     -12270.693     -13774.771      48770.332     -35075.488     -55019.159     -79051.42       280.01673     -1810.5362      24.430968      24.430968      24.430968      14582.166    
       221   294.73417     -12270.693     -13771.544      48773.791     -35073.478     -55014.946     -79051.958      280.96959     -1812.7397      24.430968      24.430968      24.430968      14582.166    
       222   294.73417     -12270.693     -13787.696      48757.175     -35090.211     -55030.053     -79052.245      281.08984     -1815.5461      24.430968      24.430968      24.430968      14582.166    
       223   294.73417     -12270.693     -13791.803      48754.494     -35095.693     -55034.211     -79054.39       282.36563     -1815.4074      24.430968      24.430968      24.430968      14582.166    
       224   294.73417     -12270.693     -13799.83       48749.004     -35105.072     -55043.421     -79054.367      283.62469     -1814.2949      24.430968      24.430968      24.430968      14582.166    
       225   294.73417     -12270.693     -13810.778      48740.906     -35117.554     -55055.686     -79053.277      282.57785     -1814.806       24.430968      24.430968      24.430968      14582.166    
       226   294.73417     -12270.693     -13813.761      48737.937     -35120.586     -55058.633     -79053.488      280.54454     -1815.724       24.430968      24.430968      24.430968      14582.166    
       227   294.73417     -12270.693     -13825.926      48726.216     -35132.882     -55071.11      -79053.555      279.55346     -1815.5569      24.430968      24.430968      24.430968      14582.166    
       228   294.73417     -12270.693     -13832.359      48721.7       -35140.286     -55078.493     -79053.941      280.25368     -1816.7641      24.430968      24.430968      24.430968      14582.166    
       229   294.73417     -12270.693     -13834.869      48721.18      -35143.342     -55082.444     -79053.996      281.6705      -1817.6064      24.430968      24.430968      24.430968      14582.166    
       230   294.73417     -12270.693     -13841.46       48717.204     -35151.074     -55090.51      -79053.977      282.27113     -1818.0478      24.430968      24.430968      24.430968      14582.166    
       231   294.73417     -12270.693     -13844.297      48715.267     -35153.716     -55094.442     -79054.646      283.3868      -1816.9071      24.430968      24.430968      24.430968      14582.166    
       232   294.73417     -12270.693     -13844.943      48715.007     -35153.719     -55096.118     -79055.581      284.39478     -1816.1008      24.430968      24.430968      24.430968      14582.166    
       233   294.73417     -12270.693     -13852.721      48707.6       -35161.429     -55104.334     -79055.292      283.70883     -1815.9428      24.430968      24.430968      24.430968      14582.166    
       234   294.73417     -12270.693     -13850.018      48710.978     -35158.352     -55102.679     -79054.765      282.42638     -1814.4809      24.430968      24.430968      24.430968      14582.166    
       235   294.73417     -12270.693     -13853.272      48708.794     -35161.15      -55107.46      -79053.687      282.37602     -1814.3378      24.430968      24.430968      24.430968      14582.166    
       236   294.73417     -12270.693     -13852.328      48710.053     -35158.237     -55108.8       -79052.661      283.0346      -1816.1935      24.430968      24.430968      24.430968      14582.166    
       237   294.73417     -12270.693     -13847.541      48714.507     -35152.047     -55105.083     -79051.927      282.66298     -1816.839       24.430968      24.430968      24.430968      14582.166    
       238   294.73417     -12270.693     -13850.725      48710.993     -35154.889     -55108.28      -79049.895      281.61071     -1816.824       24.430968      24.430968      24.430968      14582.166    
       239   294.73417     -12270.693     -13845.018      48717.14      -35148.893     -55103.3       -79049.097      280.71423     -1817.723       24.430968      24.430968      24.430968      14582.166    
       240   294.73417     -12270.693     -13845.821      48716.547     -35148.936     -55105.075     -79048.525      281.56184     -1818.7356      24.430968      24.430968      24.430968      14582.166    
       241   294.73417     -12270.693     -13844.787      48717.182     -35146.004     -55105.538     -79047.561      282.65925     -1819.8686      24.430968      24.430968      24.430968      14582.166    
       242   294.73417     -12270.693     -13840.991      48720.577     -35140.274     -55103.276     -79047.248      282.42571     -1821.3303      24.430968      24.430968      24.430968      14582.166    
       243   294.73417     -12270.693     -13841.506      48719.955     -35139.859     -55104.615     -79046.921      281.86401     -1822.0752      24.430968      24.430968      24.430968      14582.166    
       244   294.73417     -12270.693     -13837.375      48724.302     -35135.258     -55101.169     -79047.461      281.58628     -1822.5826      24.430968      24.430968      24.430968      14582.166    
       245   294.73417     -12270.693     -13836.986      48724.36      -35134.051     -55101.268     -79047.437      280.959       -1824.665       24.430968      24.430968      24.430968      14582.166    
       246   294.73417     -12270.693     -13837.083      48723.425     -35132.707     -55101.968     -79047.036      280.18993     -1826.8952      24.430968      24.430968      24.430968      14582.166    
       247   294.73417     -12270.693     -13836.177      48723.443     -35129.955     -55102.018     -79047.197      279.60729     -1826.9469      24.430968      24.430968      24.430968      14582.166    
       248   294.73417     -12270.693     -13837.352      48721.785     -35130.051     -55103.789     -79047.125      279.49819     -1827.8628      24.430968      24.430968      24.430968      14582.166    
       249   294.73417     -12270.693     -13836.889      48721.703     -35128.688     -55103.681     -79047.474      279.80748     -1830.139       24.430968      24.430968      24.430968      14582.166    
       250   294.73417     -12270.693     -13834.849      48722.704     -35125.398     -55101.855     -79048.017      279.1362      -1831.9884      24.430968      24.430968      24.430968      14582.166    
       251   294.73417     -12270.693     -13836.098      48720.557     -35125.709     -55103.142     -79048.479      278.41372     -1832.4942      24.430968      24.430968      24.430968      14582.166    
       252   294.73417     -12270.693     -13838.657      48716.872     -35127.344     -55105.5       -79048.916      278.34572     -1832.1624      24.430968      24.430968      24.430968      14582.166    
       253   294.73417     -12270.693     -13836.844      48717.399     -35124.646     -55103.285     -79049.109      278.52217     -1833.6424      24.430968      24.430968      24.430968      14582.166    
       254   294.73417     -12270.693     -13839.927      48713.226     -35126.953     -55106.054     -79048.778      278.4999      -1834.635       24.430968      24.430968      24.430968      14582.166    
       255   294.73417     -12270.693     -13839.101      48712.723     -35125.055     -55104.97      -79048.572      278.88384     -1834.0991      24.430968      24.430968      24.430968      14582.166    
       256   294.73417     -12270.693     -13836.283      48714.487     -35121.429     -55101.906     -79048.796      279.38354     -1834.9282      24.430968      24.430968      24.430968      14582.166    
       257   294.73417     -12270.693     -13839.426      48710.834     -35124.112     -55105         -79048.638      279.85745     -1836.1225      24.430968      24.430968      24.430968      14582.166    
       258   294.73417     -12270.693     -13837.07       48712.238     -35121.491     -55101.958     -79048.718      280.38513     -1835.1063      24.430968      24.430968      24.430968      14582.166    
       259   294.73417     -12270.693     -13839.319      48708.618     -35123.447     -55103.127     -79048.648      280.88009     -1834.0774      24.430968      24.430968      24.430968      14582.166    
       260   294.73417     -12270.693     -13839.051      48707.433     -35122.604     -55101.982     -79049.096      281.89646     -1834.3333      24.430968      24.430968      24.430968      14582.166    
       261   294.73417     -12270.693     -13836.765      48708.671     -35119.776     -55099.188     -79049.492      283.02044     -1834.4712      24.430968      24.430968      24.430968      14582.166    
       262   294.73417     -12270.693     -13837.318      48707.814     -35120.185     -55099.584     -79049.415      283.69204     -1833.5467      24.430968      24.430968      24.430968      14582.166    
       263   294.73417     -12270.693     -13836.831      48708.409     -35120.378     -55098.524     -79049.392      284.34714     -1832.7535      24.430968      24.430968      24.430968      14582.166    
       264   294.73417     -12270.693     -13837.029      48707.574     -35121.083     -55097.58      -79049.587      285.18435     -1833.2825      24.430968      24.430968      24.430968      14582.166    
       265   294.73417     -12270.693     -13836.41       48707.307     -35120.62      -55095.916     -79050.072      286.21917     -1833.3758      24.430968      24.430968      24.430968      14582.166    
       266   294.73417     -12270.693     -13838.89       48704.121     -35122.719     -55098.072     -79049.707      286.93004     -1832.532       24.430968      24.430968      24.430968      14582.166    
       267   294.73417     -12270.693     -13835.607      48706.819     -35118.925     -55094.717     -79049.809      287.35418     -1832.556       24.430968      24.430968      24.430968      14582.166    
       268   294.73417     -12270.693     -13836.894      48705.425     -35120.117     -55095.99      -79050.002      288.17944     -1833.6184      24.430968      24.430968      24.430968      14582.166    
       269   294.73417     -12270.693     -13838.325      48703.74      -35121.699     -55097.017     -79050.296      288.45457     -1833.2121      24.430968      24.430968      24.430968      14582.166    
       270   294.73417     -12270.693     -13836.073      48704.821     -35119.137     -55093.902     -79050.759      288.68903     -1832.5131      24.430968      24.430968      24.430968      14582.166    
       271   294.73417     -12270.693     -13839.759      48700.231     -35122.297     -55097.21      -79050.301      288.90761     -1833.1025      24.430968      24.430968      24.430968      14582.166    
       272   294.73417     -12270.693     -13837.89       48701.778     -35119.908     -55095.541     -79050.318      289.17418     -1833.2274      24.430968      24.430968      24.430968      14582.166    
       273   294.73417     -12270.693     -13839.152      48700.144     -35120.473     -55097.125     -79050.216      289.65859     -1832.6706      24.430968      24.430968      24.430968      14582.166    
       274   294.73417     -12270.693     -13838.814      48700.557     -35119.856     -55097.143     -79050.23       289.5286      -1832.727       24.430968      24.430968      24.430968      14582.166    
       275   294.73417     -12270.693     -13838.37       48700.476     -35119.155     -55096.429     -79049.965      289.6788      -1833.2013      24.430968      24.430968      24.430968      14582.166    
       276   294.73417     -12270.693     -13839.766      48698.238     -35119.996     -55097.541     -79049.63       289.98491     -1833.0837      24.430968      24.430968      24.430968      14582.166    
       277   294.73417     -12270.693     -13839.861      48697.935     -35119.536     -55097.982     -79050.109      289.93565     -1833.0303      24.430968      24.430968      24.430968      14582.166    
       278   294.73417     -12270.693     -13841.622      48695.632     -35120.664     -55099.835     -79050.244      289.79399     -1833.051       24.430968      24.430968      24.430968      14582.166    
       279   294.73417     -12270.693     -13839.921      48697.223     -35118.89      -55098.095     -79050.452      289.91696     -1833.2096      24.430968      24.430968      24.430968      14582.166    
       280   294.73417     -12270.693     -13841.88       48695.28      -35120.931     -55099.988     -79050.141      289.87534     -1833.2027      24.430968      24.430968      24.430968      14582.166    
       281   294.73417     -12270.693     -13840.98       48695.801     -35119.707     -55099.033     -79050.288      289.6306      -1833.1016      24.430968      24.430968      24.430968      14582.166    
       282   294.73417     -12270.693     -13840.776      48696.1       -35119.344     -55099.084     -79050.812      289.30551     -1833.276       24.430968      24.430968      24.430968      14582.166    
       283   294.73417     -12270.693     -13843.516      48693.434     -35122.086     -55101.896     -79050.679      289.19687     -1833.091       24.430968      24.430968      24.430968      14582.166    
       284   294.73417     -12270.693     -13842.139      48694.567     -35120.777     -55100.207     -79050.758      289.59193     -1833.155       24.430968      24.430968      24.430968      14582.166    
       285   294.73417     -12270.693     -13842.792      48693.674     -35121.435     -55100.615     -79050.728      289.25278     -1833.5246      24.430968      24.430968      24.430968      14582.166    
       286   294.73417     -12270.693     -13842.486      48693.838     -35121.064     -55100.232     -79050.81       288.79789     -1833.5805      24.430968      24.430968      24.430968      14582.166    
       287   294.73417     -12270.693     -13841.338      48695.025     -35119.832     -55099.206     -79051.151      288.7068      -1833.0002      24.430968      24.430968      24.430968      14582.166    
       288   294.73417     -12270.693     -13842.001      48694.503     -35120.359     -55100.146     -79051.052      288.81233     -1833.0622      24.430968      24.430968      24.430968      14582.166    
       289   294.73417     -12270.693     -13841.343      48695.109     -35119.559     -55099.578     -79050.996      288.68594     -1833.3722      24.430968      24.430968      24.430968      14582.166    
       290   294.73417     -12270.693     -13840.464      48695.762     -35118.618     -55098.536     -79050.953      288.38033     -1832.9033      24.430968      24.430968      24.430968      14582.166    
       291   294.73417     -12270.693     -13840.786      48695.559     -35119.005     -55098.913     -79050.893      288.257       -1832.7449      24.430968      24.430968      24.430968      14582.166    
       292   294.73417     -12270.693     -13839.204      48697.231     -35117.386     -55097.457     -79051.079      288.30314     -1832.9093      24.430968      24.430968      24.430968      14582.166    
       293   294.73417     -12270.693     -13838.182      48698.352     -35116.217     -55096.68      -79050.995      288.37958     -1832.9135      24.430968      24.430968      24.430968      14582.166    
       294   294.73417     -12270.693     -13838.562      48698.194     -35116.694     -55097.185     -79050.833      288.17931     -1832.7249      24.430968      24.430968      24.430968      14582.166    
       295   294.73417     -12270.693     -13837.617      48699.075     -35115.859     -55096.067     -79050.872      288.15319     -1832.6284      24.430968      24.430968      24.430968      14582.166    
       296   294.73417     -12270.693     -13837.202      48699.508     -35115.66      -55095.454     -79050.943      288.39542     -1832.6951      24.430968      24.430968      24.430968      14582.166    
       297   294.73417     -12270.693     -13837.218      48699.622     -35115.973     -55095.302     -79050.908      288.44651     -1832.7845      24.430968      24.430968      24.430968      14582.166    
       298   294.73417     -12270.693     -13836.175      48700.723     -35115.17      -55094.078     -79050.798      288.38551     -1832.7639      24.430968      24.430968      24.430968      14582.166    
       299   294.73417     -12270.693     -13836.159      48700.917     -35115.495     -55093.901     -79050.806      288.51282     -1832.7936      24.430968      24.430968      24.430968      14582.166    
       300   294.73417     -12270.693     -13836.321      48700.883     -35115.972     -55093.873     -79050.865      288.63456     -1833.0353      24.430968      24.430968      24.430968      14582.166    
       301   294.73417     -12270.693     -13835.549      48701.696     -35115.534     -55092.808     -79051.068      288.73903     -1833.1293      24.430968      24.430968      24.430968      14582.166    
       302   294.73417     -12270.693     -13836.933      48700.468     -35117.33      -55093.938     -79050.992      288.69945     -1833.3516      24.430968      24.430968      24.430968      14582.166    
       303   294.73417     -12270.693     -13836.384      48701.201     -35117.229     -55093.125     -79051.091      288.69266     -1833.5938      24.430968      24.430968      24.430968      14582.166    
       304   294.73417     -12270.693     -13836.021      48701.755     -35117.252     -55092.565     -79051.269      288.79697     -1833.593       24.430968      24.430968      24.430968      14582.166    
       305   294.73417     -12270.693     -13837.026      48701.021     -35118.574     -55093.525     -79051.239      288.71192     -1833.9281      24.430968      24.430968      24.430968      14582.166    
       306   294.73417     -12270.693     -13836.169      48702.109     -35118.04      -55092.576     -79051.359      288.68514     -1834.2563      24.430968      24.430968      24.430968      14582.166    
       307   294.73417     -12270.693     -13836.869      48701.555     -35119.029     -55093.133     -79051.304      288.79257     -1834.15        24.430968      24.430968      24.430968      14582.166    
       308   294.73417     -12270.693     -13836.705      48701.929     -35119.093     -55092.952     -79051.378      288.81721     -1834.0277      24.430968      24.430968      24.430968      14582.166    
       309   294.73417     -12270.693     -13836.985      48701.746     -35119.447     -55093.253     -79051.359      288.6699      -1834.2802      24.430968      24.430968      24.430968      14582.166    
       310   294.73417     -12270.693     -13836.834      48701.948     -35119.448     -55093.003     -79051.24       288.60121     -1834.4125      24.430968      24.430968      24.430968      14582.166    
       311   294.73417     -12270.693     -13836.731      48702.214     -35119.56      -55092.848     -79051.143      288.57519     -1834.2381      24.430968      24.430968      24.430968      14582.166    
       312   294.73417     -12270.693     -13836.896      48702.167     -35119.776     -55093.078     -79051.144      288.66585     -1834.2198      24.430968      24.430968      24.430968      14582.166    
       313   294.73417     -12270.693     -13836.367      48702.773     -35119.208     -55092.666     -79051.172      288.64896     -1834.3595      24.430968      24.430968      24.430968      14582.166    
       314   294.73417     -12270.693     -13836.858      48702.39      -35119.606     -55093.358     -79050.954      288.44373     -1834.4076      24.430968      24.430968      24.430968      14582.166    
       315   294.73417     -12270.693     -13836.436      48702.912     -35119.265     -55092.954     -79050.946      288.38799     -1834.1505      24.430968      24.430968      24.430968      14582.166    
       316   294.73417     -12270.693     -13836.905      48702.509     -35119.739     -55093.487     -79050.951      288.30344     -1834.0596      24.430968      24.430968      24.430968      14582.166    
       317   294.73417     -12270.693     -13836.708      48702.813     -35119.458     -55093.478     -79050.988      288.27161     -1834.2972      24.430968      24.430968      24.430968      14582.166    
       318   294.73417     -12270.693     -13836.936      48702.53      -35119.53      -55093.808     -79050.905      288.27399     -1834.205       24.430968      24.430968      24.430968      14582.166    
       319   294.73417     -12270.693     -13836.895      48702.557     -35119.313     -55093.929     -79050.837      288.18391     -1834.0261      24.430968      24.430968      24.430968      14582.166    
       320   294.73417     -12270.693     -13836.807      48702.756     -35119.176     -55094.002     -79050.974      288.0345      -1834.1584      24.430968      24.430968      24.430968      14582.166    
       321   294.73417     -12270.693     -13837.547      48701.964     -35119.78      -55094.826     -79051.006      287.9159      -1834.1385      24.430968      24.430968      24.430968      14582.166    
       322   294.73417     -12270.693     -13836.82       48702.752     -35118.939     -55094.271     -79051.066      287.84591     -1833.9499      24.430968      24.430968      24.430968      14582.166    
       323   294.73417     -12270.693     -13837.97       48701.643     -35119.935     -55095.619     -79050.994      287.76629     -1833.9939      24.430968      24.430968      24.430968      14582.166    
       324   294.73417     -12270.693     -13837.497      48702.075     -35119.207     -55095.359     -79051.097      287.69066     -1834.0162      24.430968      24.430968      24.430968      14582.166    
       325   294.73417     -12270.693     -13837.505      48702.113     -35119.058     -55095.571     -79051.133      287.63865     -1833.9241      24.430968      24.430968      24.430968      14582.166    
       326   294.73417     -12270.693     -13838.495      48701.106     -35119.915     -55096.675     -79050.977      287.56515     -1833.8585      24.430968      24.430968      24.430968      14582.166    
       327   294.73417     -12270.693     -13837.463      48702.088     -35118.739     -55095.738     -79051.027      287.58661     -1833.893       24.430968      24.430968      24.430968      14582.166    
       328   294.73417     -12270.693     -13838.153      48701.35      -35119.189     -55096.62      -79051.02       287.61079     -1833.8805      24.430968      24.430968      24.430968      14582.166    
       329   294.73417     -12270.693     -13838.356      48701.081     -35119.104     -55097.044     -79051.057      287.66544     -1833.8721      24.430968      24.430968      24.430968      14582.166    
       330   294.73417     -12270.693     -13838.015      48701.28      -35118.476     -55096.849     -79051.008      287.72192     -1833.9814      24.430968      24.430968      24.430968      14582.166    
       331   294.73417     -12270.693     -13838.508      48700.684     -35118.802     -55097.407     -79050.782      287.68549     -1834.0957      24.430968      24.430968      24.430968      14582.166    
       332   294.73417     -12270.693     -13838.11       48700.999     -35118.246     -55097.084     -79050.825      287.70284     -1834.0337      24.430968      24.430968      24.430968      14582.166    
       333   294.73417     -12270.693     -13837.87       48701.113     -35117.737     -55096.987     -79050.914      287.78121     -1833.9009      24.430968      24.430968      24.430968      14582.166    
       334   294.73417     -12270.693     -13838.437      48700.513     -35118.12      -55097.705     -79050.835      287.9028      -1833.961       24.430968      24.430968      24.430968      14582.166    
       335   294.73417     -12270.693     -13837.822      48701.026     -35117.329     -55097.163     -79050.795      287.97689     -1833.9041      24.430968      24.430968      24.430968      14582.166    
       336   294.73417     -12270.693     -13837.826      48700.943     -35117.189     -55097.233     -79050.76       288.03983     -1833.7161      24.430968      24.430968      24.430968      14582.166    
       337   294.73417     -12270.693     -13838.088      48700.715     -35117.395     -55097.585     -79050.769      288.06738     -1833.7233      24.430968      24.430968      24.430968      14582.166    
       338   294.73417     -12270.693     -13837.346      48701.399     -35116.578     -55096.859     -79050.778      288.11687     -1833.8649      24.430968      24.430968      24.430968      14582.166    
       339   294.73417     -12270.693     -13837.458      48701.211     -35116.695     -55096.89      -79050.713      288.16335     -1833.7856      24.430968      24.430968      24.430968      14582.166    
       340   294.73417     -12270.693     -13837.114      48701.547     -35116.38      -55096.509     -79050.743      288.1881      -1833.6812      24.430968      24.430968      24.430968      14582.166    
       341   294.73417     -12270.693     -13837.044      48701.573     -35116.292     -55096.412     -79050.779      288.2879      -1833.7503      24.430968      24.430968      24.430968      14582.166    
       342   294.73417     -12270.693     -13836.862      48701.722     -35116.089     -55096.218     -79050.758      288.38105     -1833.683       24.430968      24.430968      24.430968      14582.166    
       343   294.73417     -12270.693     -13836.67       48701.871     -35115.864     -55096.017     -79050.697      288.39816     -1833.6214      24.430968      24.430968      24.430968      14582.166    
       344   294.73417     -12270.693     -13836.616      48701.794     -35115.779     -55095.862     -79050.639      288.3744      -1833.647       24.430968      24.430968      24.430968      14582.166    
       345   294.73417     -12270.693     -13836.142      48702.209     -35115.321     -55095.314     -79050.641      288.45932     -1833.6663      24.430968      24.430968      24.430968      14582.166    
       346   294.73417     -12270.693     -13836.278      48701.992     -35115.461     -55095.365     -79050.622      288.54136     -1833.657       24.430968      24.430968      24.430968      14582.166    
       347   294.73417     -12270.693     -13835.931      48702.194     -35115.057     -55094.932     -79050.576      288.56024     -1833.6244      24.430968      24.430968      24.430968      14582.166    
       348   294.73417     -12270.693     -13835.876      48702.183     -35114.937     -55094.873     -79050.524      288.55446     -1833.7181      24.430968      24.430968      24.430968      14582.166    
       349   294.73417     -12270.693     -13835.894      48702.061     -35114.889     -55094.855     -79050.503      288.51181     -1833.7931      24.430968      24.430968      24.430968      14582.166    
       350   294.73417     -12270.693     -13835.39       48702.454     -35114.35      -55094.273     -79050.558      288.55159     -1833.6728      24.430968      24.430968      24.430968      14582.166    
       351   294.73417     -12270.693     -13835.665      48702.119     -35114.627     -55094.485     -79050.586      288.55237     -1833.6512      24.430968      24.430968      24.430968      14582.166    
       352   294.73417     -12270.693     -13835.493      48702.236     -35114.45      -55094.265     -79050.584      288.48665     -1833.8068      24.430968      24.430968      24.430968      14582.166    
       353   294.73417     -12270.693     -13835.206      48702.481     -35114.13      -55093.97      -79050.637      288.4885      -1833.8048      24.430968      24.430968      24.430968      14582.166    
       354   294.73417     -12270.693     -13835.399      48702.229     -35114.267     -55094.16      -79050.691      288.43879     -1833.7538      24.430968      24.430968      24.430968      14582.166    
       355   294.73417     -12270.693     -13835.115      48702.423     -35113.909     -55093.86      -79050.748      288.37381     -1833.843       24.430968      24.430968      24.430968      14582.166    
       356   294.73417     -12270.693     -13835.215      48702.295     -35113.979     -55093.96      -79050.781      288.34784     -1833.8993      24.430968      24.430968      24.430968      14582.166    
       357   294.73417     -12270.693     -13835.125      48702.431     -35113.887     -55093.92      -79050.826      288.27059     -1833.9326      24.430968      24.430968      24.430968      14582.166    
[...]
      1111   294.73417     -12273.823     -12026.333      37131.118     -31818.059     -41392.057     -73437.75       168.79152     -1010.7954      24.512421      24.391958      24.359013      14564.399    
      1112   294.73417     -12273.824     -12151.361      37054.488     -31964.859     -41543.71      -73480.914      178.1409      -1010.7831      24.512421      24.391958      24.359013      14564.399    
      1113   294.73417     -12273.825     -12038.873      37245.2       -31861.265     -41500.553     -73534.359      177.28027     -1010.4109      24.512421      24.391958      24.359013      14564.399    
      1114   294.73417     -12273.826     -12137.608      37235.738     -31966.891     -41681.67      -73550.584      189.6449      -1002.1821      24.512421      24.391958      24.359013      14564.399    
      1115   294.73417     -12273.826     -12074.821      37375.305     -31914.355     -41685.414     -73504.392      191.23138     -990.06464      24.512421      24.391958      24.359013      14564.399    
      1116   294.73417     -12273.827     -12096.596      37438.49      -31971.183     -41757.096     -73487.799      200.0607      -981.24404      24.512421      24.391958      24.359013      14564.399    
      1117   294.73417     -12273.828     -12188.189      37447.618     -32119.43      -41892.755     -73509.351      189.74522     -944.4959       24.512421      24.391958      24.359013      14564.399    
      1118   294.73417     -12273.829     -12206.761      37507.097     -32185.887     -41941.494     -73518.014      163.70875     -948.28709      24.512421      24.391958      24.359013      14564.399    
      1119   294.73417     -12273.829     -12193.027      37587.891     -32206.754     -41960.219     -73503.075      158.21476     -937.72413      24.512421      24.391958      24.359013      14564.399    
      1120   294.73417     -12273.83      -12259.429      37610.291     -32322.923     -42065.657     -73451.17       171.76285     -908.20097      24.512421      24.391958      24.359013      14564.399    
      1121   294.73417     -12273.831     -12118.546      37827.128     -32219.965     -41962.8       -73472.008      155.46857     -887.22609      24.512421      24.391958      24.359013      14564.399    
      1122   294.73417     -12273.831     -12267.454      37751.54      -32414.225     -42139.678     -73484.29       127.972       -877.90667      24.512421      24.391958      24.359013      14564.399    
      1123   294.73417     -12273.832     -12251.696      37810.115     -32433.518     -42131.685     -73485.664      129.36305     -886.74855      24.512421      24.391958      24.359013      14564.399    
      1124   294.73417     -12273.832     -12240.387      37860.846     -32434.667     -42147.339     -73497.575      144.97282     -888.98262      24.512421      24.391958      24.359013      14564.399    
      1125   294.73417     -12273.833     -12292.483      37891.899     -32515.158     -42254.191     -73525.225      142.49109     -899.9342       24.512421      24.391958      24.359013      14564.399    
      1126   294.73417     -12273.834     -12289.781      37985.357     -32556.051     -42298.648     -73547.384      118.61357     -902.09511      24.512421      24.391958      24.359013      14564.399    
      1127   294.73417     -12273.834     -12238.864      38101.389     -32558.072     -42259.908     -73538.46       112.59117     -895.66634      24.512421      24.391958      24.359013      14564.399    
      1128   294.73417     -12273.835     -12312.384      38084.483     -32691.386     -42330.247     -73502.001      121.10836     -876.0374       24.512421      24.391958      24.359013      14564.399    
      1129   294.73417     -12273.836     -12209.197      38217.853     -32598.512     -42246.932     -73524.854      116.45877     -900.74993      24.512421      24.391958      24.359013      14564.399    
      1130   294.73417     -12273.836     -12326.098      38145.57      -32740.689     -42383.176     -73545.634      108.20839     -929.79113      24.512421      24.391958      24.359013      14564.399    
      1131   294.73417     -12273.837     -12307.78       38241.97      -32801.224     -42364.086     -73535.685      133.49605     -901.25129      24.512421      24.391958      24.359013      14564.399    
      1132   294.73417     -12273.838     -12260.192      38367.233     -32847.414     -42300.395     -73525.921      158.68109     -868.45012      24.512421      24.391958      24.359013      14564.399    
      1133   294.73417     -12273.839     -12331.307      38407.437     -33023.879     -42377.478     -73526.817      162.23506     -830.93933      24.512421      24.391958      24.359013      14564.399    
      1134   294.73417     -12273.84      -12355.132      38490.674     -33109.4       -42446.669     -73569.289      160.3091      -808.67478      24.512421      24.391958      24.359013      14564.399    
      1135   294.73417     -12273.841     -12349.631      38568.693     -33165.269     -42452.318     -73589.032      184.08569     -776.26061      24.512421      24.391958      24.359013      14564.399    
      1136   294.73417     -12273.843     -12484.808      38552.736     -33430.329     -42576.831     -73574.791      216.61267     -716.50363      24.512421      24.391958      24.359013      14564.399    
      1137   294.73417     -12273.844     -12444.072      38709.217     -33501.571     -42539.861     -73604.274      217.50824     -660.51363      24.512421      24.391958      24.359013      14564.399    
      1138   294.73417     -12273.845     -12646.943      38604.359     -33794.79      -42750.397     -73611.412      204.76461     -610.11799      24.512421      24.391958      24.359013      14564.399    
      1139   294.73417     -12273.847     -12606.127      38708.248     -33816.332     -42710.298     -73608.735      209.51715     -592.35329      24.512421      24.391958      24.359013      14564.399    
      1140   294.73417     -12273.847     -12741.827      38600.404     -34004.004     -42821.881     -73589.179      226.69574     -575.94139      24.512421      24.391958      24.359013      14564.399    
      1141   294.73417     -12273.848     -12770.924      38613.428     -34086.802     -42839.398     -73605.152      214.31424     -528.90073      24.512421      24.391958      24.359013      14564.399    
      1142   294.73417     -12273.849     -12844.371      38580.729     -34196.997     -42916.846     -73625.888      218.21818     -510.13122      24.512421      24.391958      24.359013      14564.399    
      1143   294.73417     -12273.85      -12941.067      38500.187     -34310.254     -43013.135     -73609.505      191.62056     -465.686        24.512421      24.391958      24.359013      14564.399    
      1144   294.73417     -12273.851     -12929.443      38519.072     -34320.828     -42986.574     -73564.312      179.72578     -434.83075      24.512421      24.391958      24.359013      14564.399    
      1145   294.73417     -12273.851     -13051.067      38413.557     -34459.736     -43107.022     -73557.271      159.66467     -398.38838      24.512421      24.391958      24.359013      14564.399    
      1146   294.73417     -12273.852     -13054.461      38449.507     -34498.07      -43114.821     -73590.223      160.24044     -389.01754      24.512421      24.391958      24.359013      14564.399    
      1147   294.73417     -12273.853     -13094.076      38428.796     -34572.847     -43138.178     -73573.269      171.6063      -365.79575      24.512421      24.391958      24.359013      14564.399    
      1148   294.73417     -12273.853     -13150.025      38389.269     -34660.019     -43179.326     -73537.486      184.50484     -356.1009       24.512421      24.391958      24.359013      14564.399    
      1149   294.73417     -12273.853     -13122.037      38441.145     -34655.279     -43151.976     -73526.802      182.08279     -340.92329      24.512421      24.391958      24.359013      14564.399    
      1150   294.73417     -12273.854     -13203.99       38387.093     -34753.11      -43245.952     -73545.878      184.92518     -313.74401      24.512421      24.391958      24.359013      14564.399    
Loop time of 0.63363 on 6 procs for 100 steps with 1728 atoms

99.5% CPU use with 6 MPI tasks x 1 OpenMP threads

Minimization stats:
  Stopping criterion = max iterations
  Energy initial, next-to-last, final = 
     -12272.6443939486  -12273.8534716215  -12273.8538842587
  Force two-norm initial, final = 5.9683561 0.36550916
  Force max component initial, final = 0.24753506 0.075301519
  Final line search alpha, max atom move = 0.11151738 0.0083974279
  Iterations, force evaluations = 100 200

MPI task timing breakdown:
Section |  min time  |  avg time  |  max time  |%varavg| %total
---------------------------------------------------------------
Pair    | 0.55714    | 0.56545    | 0.58447    |   1.3 | 89.24
Neigh   | 0          | 0          | 0          |   0.0 |  0.00
Comm    | 0.038695   | 0.057847   | 0.066101   |   4.0 |  9.13
Output  | 0.0038358  | 0.0043345  | 0.0045984  |   0.4 |  0.68
Modify  | 0          | 0          | 0          |   0.0 |  0.00
Other   |            | 0.005998   |            |       |  0.95

Nlocal:            288 ave         293 max         284 min
Histogram: 1 0 2 0 1 0 0 1 0 1
Nghost:        2524.17 ave        2535 max        2510 min
Histogram: 1 0 1 0 0 1 1 0 0 2
Neighs:              0 ave           0 max           0 min
Histogram: 6 0 0 0 0 0 0 0 0 0
FullNghs:      26098.3 ave       26724 max       25512 min
Histogram: 1 0 1 1 1 0 0 0 1 1

Total # of neighbors = 156590
Ave neighs/atom = 90.619213
Neighbor list builds = 0
Dangerous builds = 0

# Obtain new stress tensor

variable tmp equal pe
variable e1 equal ${tmp}
variable e1 equal -12273.8538842587
variable tmp equal press
variable p1 equal ${tmp}
variable p1 equal -13203.9898823825
variable tmp equal pxx
variable pxx1 equal ${tmp}
variable pxx1 equal 38387.0925375287
variable tmp equal pyy
variable pyy1 equal ${tmp}
variable pyy1 equal -34753.110420182
variable tmp equal pzz
variable pzz1 equal ${tmp}
variable pzz1 equal -43245.9517644942
variable tmp equal pxy
variable pxy1 equal ${tmp}
variable pxy1 equal -73545.878149984
variable tmp equal pxz
variable pxz1 equal ${tmp}
variable pxz1 equal 184.925182051303
variable tmp equal pyz
variable pyz1 equal ${tmp}
variable pyz1 equal -313.744013729574

# Compute elastic constant from pressure tensor

variable C1pos equal ${d1}
variable C1pos equal -3338683.24721985
variable C2pos equal ${d2}
variable C2pos equal 3934445.15725334
variable C3pos equal ${d3}
variable C3pos equal 4804695.90114426
variable C4pos equal ${d4}
variable C4pos equal -161057.185334681
variable C5pos equal ${d5}
variable C5pos equal 7154.7411313964
variable C6pos equal ${d6}
variable C6pos equal -227329.46135829

# Combine positive and negative

variable C1${dir} equal 0.5*(${C1neg}+${C1pos})
variable C16 equal 0.5*(${C1neg}+${C1pos})
variable C16 equal 0.5*(3338472.52094845+${C1pos})
variable C16 equal 0.5*(3338472.52094845+-3338683.24721985)
variable C2${dir} equal 0.5*(${C2neg}+${C2pos})
variable C26 equal 0.5*(${C2neg}+${C2pos})
variable C26 equal 0.5*(-3934626.58958371+${C2pos})
variable C26 equal 0.5*(-3934626.58958371+3934445.15725334)
variable C3${dir} equal 0.5*(${C3neg}+${C3pos})
variable C36 equal 0.5*(${C3neg}+${C3pos})
variable C36 equal 0.5*(-4804433.22675918+${C3pos})
variable C36 equal 0.5*(-4804433.22675918+4804695.90114426)
variable C4${dir} equal 0.5*(${C4neg}+${C4pos})
variable C46 equal 0.5*(${C4neg}+${C4pos})
variable C46 equal 0.5*(161097.601314853+${C4pos})
variable C46 equal 0.5*(161097.601314853+-161057.185334681)
variable C5${dir} equal 0.5*(${C5neg}+${C5pos})
variable C56 equal 0.5*(${C5neg}+${C5pos})
variable C56 equal 0.5*(-7099.6049373346+${C5pos})
variable C56 equal 0.5*(-7099.6049373346+7154.7411313964)
variable C6${dir} equal 0.5*(${C6neg}+${C6pos})
variable C66 equal 0.5*(${C6neg}+${C6pos})
variable C66 equal 0.5*(227440.8519676+${C6pos})
variable C66 equal 0.5*(227440.8519676+-227329.46135829)

# Delete dir to make sure it is not reused

variable dir delete

# Output final values

variable C11all equal ${C11}
variable C11all equal 403.454292949988
variable C22all equal ${C22}
variable C22all equal 781.121246414958
variable C33all equal ${C33}
variable C33all equal 250.405517934822

variable C12all equal 0.5*(${C12}+${C21})
variable C12all equal 0.5*(-105.801740920171+${C21})
variable C12all equal 0.5*(-105.801740920171+1010.77335587493)
variable C13all equal 0.5*(${C13}+${C31})
variable C13all equal 0.5*(-179.407270305092+${C31})
variable C13all equal 0.5*(-179.407270305092+925.924571220297)
variable C23all equal 0.5*(${C23}+${C32})
variable C23all equal 0.5*(963.107952445047+${C32})
variable C23all equal 0.5*(963.107952445047+511.736861045007)

variable C44all equal ${C44}
variable C44all equal 25.8214587179973
variable C55all equal ${C55}
variable C55all equal 76.5116604741002
variable C66all equal ${C66}
variable C66all equal 55.6953046550043

variable C14all equal 0.5*(${C14}+${C41})
variable C14all equal 0.5*(20.7057818251196+${C41})
variable C14all equal 0.5*(20.7057818251196+-406.162679130503)
variable C15all equal 0.5*(${C15}+${C51})
variable C15all equal 0.5*(11.2388990100008+${C51})
variable C15all equal 0.5*(11.2388990100008+-112.3340470553)
variable C16all equal 0.5*(${C16}+${C61})
variable C16all equal 0.5*(-105.363135699881+${C61})
variable C16all equal 0.5*(-105.363135699881+85.8419312345068)

variable C24all equal 0.5*(${C24}+${C42})
variable C24all equal 0.5*(20.3621969849337+${C42})
variable C24all equal 0.5*(20.3621969849337+-311.829668127)
variable C25all equal 0.5*(${C25}+${C52})
variable C25all equal 0.5*(6.74504227004945+${C52})
variable C25all equal 0.5*(6.74504227004945+-176.37413991995)
variable C26all equal 0.5*(${C26}+${C62})
variable C26all equal 0.5*(-90.7161651849747+${C62})
variable C26all equal 0.5*(-90.7161651849747+187.790708429995)

variable C34all equal 0.5*(${C34}+${C43})
variable C34all equal 0.5*(192.02124002995+${C43})
variable C34all equal 0.5*(192.02124002995+-207.31888416849)
variable C35all equal 0.5*(${C35}+${C53})
variable C35all equal 0.5*(-31.5987304397859+${C53})
variable C35all equal 0.5*(-31.5987304397859+-260.4292852455)
variable C36all equal 0.5*(${C36}+${C63})
variable C36all equal 0.5*(131.337192539591+${C63})
variable C36all equal 0.5*(131.337192539591+256.492837180005)

variable C45all equal 0.5*(${C45}+${C54})
variable C45all equal 0.5*(-6.95347500299977+${C54})
variable C45all equal 0.5*(-6.95347500299977+11.8542052162998)
variable C46all equal 0.5*(${C46}+${C64})
variable C46all equal 0.5*(20.2079900859972+${C64})
variable C46all equal 0.5*(20.2079900859972+-9.45684790500673)
variable C56all equal 0.5*(${C56}+${C65})
variable C56all equal 0.5*(27.5680970308999+${C65})
variable C56all equal 0.5*(27.5680970308999+-2.33241997499135)

# Average moduli for cubic crystals

variable C11cubic equal (${C11all}+${C22all}+${C33all})/3.0
variable C11cubic equal (403.454292949988+${C22all}+${C33all})/3.0
variable C11cubic equal (403.454292949988+781.121246414958+${C33all})/3.0
variable C11cubic equal (403.454292949988+781.121246414958+250.405517934822)/3.0
variable C12cubic equal (${C12all}+${C13all}+${C23all})/3.0
variable C12cubic equal (452.485807477379+${C13all}+${C23all})/3.0
variable C12cubic equal (452.485807477379+373.258650457603+${C23all})/3.0
variable C12cubic equal (452.485807477379+373.258650457603+737.422406745027)/3.0
variable C44cubic equal (${C44all}+${C55all}+${C66all})/3.0
variable C44cubic equal (25.8214587179973+${C55all}+${C66all})/3.0
variable C44cubic equal (25.8214587179973+76.5116604741002+${C66all})/3.0
variable C44cubic equal (25.8214587179973+76.5116604741002+55.6953046550043)/3.0

variable bulkmodulus equal (${C11cubic}+2*${C12cubic})/3.0
variable bulkmodulus equal (478.327019099923+2*${C12cubic})/3.0
variable bulkmodulus equal (478.327019099923+2*521.055621560003)/3.0
variable shearmodulus1 equal ${C44cubic}
variable shearmodulus1 equal 52.6761412823673
variable shearmodulus2 equal (${C11cubic}-${C12cubic})/2.0
variable shearmodulus2 equal (478.327019099923-${C12cubic})/2.0
variable shearmodulus2 equal (478.327019099923-521.055621560003)/2.0
variable poissonratio equal 1.0/(1.0+${C11cubic}/${C12cubic})
variable poissonratio equal 1.0/(1.0+478.327019099923/${C12cubic})
variable poissonratio equal 1.0/(1.0+478.327019099923/521.055621560003)

# For Stillinger-Weber silicon, the analytical results
# are known to be (E. R. Cowley, 1988):
#               C11 = 151.4 GPa
#               C12 = 76.4 GPa
#               C44 = 56.4 GPa

print "========================================="
=========================================
print "Components of the Elastic Constant Tensor"
Components of the Elastic Constant Tensor
print "========================================="
=========================================

print "Elastic Constant C11all = ${C11all} ${cunits}"
Elastic Constant C11all = 403.454292949988 GPa
print "Elastic Constant C22all = ${C22all} ${cunits}"
Elastic Constant C22all = 781.121246414958 GPa
print "Elastic Constant C33all = ${C33all} ${cunits}"
Elastic Constant C33all = 250.405517934822 GPa

print "Elastic Constant C12all = ${C12all} ${cunits}"
Elastic Constant C12all = 452.485807477379 GPa
print "Elastic Constant C13all = ${C13all} ${cunits}"
Elastic Constant C13all = 373.258650457603 GPa
print "Elastic Constant C23all = ${C23all} ${cunits}"
Elastic Constant C23all = 737.422406745027 GPa

print "Elastic Constant C44all = ${C44all} ${cunits}"
Elastic Constant C44all = 25.8214587179973 GPa
print "Elastic Constant C55all = ${C55all} ${cunits}"
Elastic Constant C55all = 76.5116604741002 GPa
print "Elastic Constant C66all = ${C66all} ${cunits}"
Elastic Constant C66all = 55.6953046550043 GPa

print "Elastic Constant C14all = ${C14all} ${cunits}"
Elastic Constant C14all = -192.728448652692 GPa
print "Elastic Constant C15all = ${C15all} ${cunits}"
Elastic Constant C15all = -50.5475740226496 GPa
print "Elastic Constant C16all = ${C16all} ${cunits}"
Elastic Constant C16all = -9.7606022326871 GPa

print "Elastic Constant C24all = ${C24all} ${cunits}"
Elastic Constant C24all = -145.733735571033 GPa
print "Elastic Constant C25all = ${C25all} ${cunits}"
Elastic Constant C25all = -84.8145488249503 GPa
print "Elastic Constant C26all = ${C26all} ${cunits}"
Elastic Constant C26all = 48.5372716225101 GPa

print "Elastic Constant C34all = ${C34all} ${cunits}"
Elastic Constant C34all = -7.64882206927 GPa
print "Elastic Constant C35all = ${C35all} ${cunits}"
Elastic Constant C35all = -146.014007842643 GPa
print "Elastic Constant C36all = ${C36all} ${cunits}"
Elastic Constant C36all = 193.915014859798 GPa

print "Elastic Constant C45all = ${C45all} ${cunits}"
Elastic Constant C45all = 2.45036510665001 GPa
print "Elastic Constant C46all = ${C46all} ${cunits}"
Elastic Constant C46all = 5.37557109049523 GPa
print "Elastic Constant C56all = ${C56all} ${cunits}"
Elastic Constant C56all = 12.6178385279543 GPa

print "========================================="
=========================================
print "Average properties for a cubic crystal"
Average properties for a cubic crystal
print "========================================="
=========================================

print "Bulk Modulus = ${bulkmodulus} ${cunits}"
Bulk Modulus = 506.81275407331 GPa
print "Shear Modulus 1 = ${shearmodulus1} ${cunits}"
Shear Modulus 1 = 52.6761412823673 GPa
print "Shear Modulus 2 = ${shearmodulus2} ${cunits}"
Shear Modulus 2 = -21.36430123004 GPa
print "Poisson Ratio = ${poissonratio}"
Poisson Ratio = 0.521377498828609
Total wall time: 0:00:14
