LAMMPS (24 Mar 2022)
OMP_NUM_THREADS environment is not set. Defaulting to 1 thread. (src/comm.cpp:98)
  using 1 OpenMP thread(s) per MPI task
# Compute elastic constant tensor for a crystal
#
# Written by Aidan Thompson (Sandia, athomps@sandia.gov)
#
#  This script uses the following three include files.
#
#   init.mod      (must be modified for different crystal structures)
# 	       	  Define units, deformation parameters and initial
#		  configuration of the atoms and simulation cell.
#
#
#   potential.mod    (must be modified for different pair styles)
# 		     Define pair style and other attributes
#		     not stored in restart file
#
#
#   displace.mod    (displace.mod should not need to be modified)
# 		    Perform positive and negative box displacements
# 		    in direction ${dir} and size ${up}.
# 		    It uses the resultant changes
#		    in stress to compute one
# 		    row of the elastic stiffness tensor
#
#		    Inputs variables:
#		    	   dir = the Voigt deformation component
#		    		    (1,2,3,4,5,6)
#		    Global constants:
#       	    	   up = the deformation magnitude (strain units)
#       		   cfac = conversion from LAMMPS pressure units to
#               	   output units for elastic constants
#
#
#  To run this on a different system, it should only be necessary to
#  modify the files init.mod and potential.mod. In order to calculate
#  the elastic constants correctly, care must be taken to specify
#  the correct units in init.mod (units, cfac and cunits). It is also
#  important to verify that the minimization of energy w.r.t atom
#  positions in the deformed cell is fully converged.
#  One indication of this is that the elastic constants are insensitive
#  to the choice of the variable ${up} in init.mod. Another is to check
#  the final max and two-norm forces reported in the log file. If you know
#  that minimization is not required, you can set maxiter = 0.0 in
#  init.mod.
#

include init.mod
# NOTE: This script can be modified for different atomic structures,
# units, etc. See in.elastic for more info.
#

# Define the finite deformation size. Try several values of this
# variable to verify that results do not depend on it.
variable up equal 1.0e-6

# Define the amount of random jiggle for atoms
# This prevents atoms from staying on saddle points
variable atomjiggle equal 1.0e-5

# Uncomment one of these blocks, depending on what units
# you are using in LAMMPS and for output

# metal units, elastic constants in eV/A^3
#units		metal
#variable cfac equal 6.2414e-7
#variable cunits string eV/A^3

# metal units, elastic constants in GPa
units		metal
variable cfac equal 1.0e-4
variable cunits string GPa

# real units, elastic constants in GPa
#units		real
#variable cfac equal 1.01325e-4
#variable cunits string GPa

# Define minimization parameters
variable etol equal 0.0
variable ftol equal 1.0e-2
variable maxiter equal 100
variable maxeval equal 100
variable dmax equal 1.0e-2

# generate the box and atom positions using a diamond lattice

boundary	p p p


read_data NiO_npt_equil.data
Reading data file ...
  triclinic box = (0.43437442 0.43437442 0.43437442) to (24.865343 24.865343 24.865343) with tilt (0 0 0)
  1 by 1 by 1 MPI processor grid
  reading atoms ...
  1728 atoms
  reading velocities ...
  1728 velocities
  read_data CPU = 0.007 seconds


# Need to set mass to something, just to satisfy LAMMPS
mass 2 15.999

include potential.mod
# NOTE: This script can be modified for different pair styles
# See in.elastic for more info.

# Choose potential
pair_style hybrid/overlay eam/alloy edip/multi
pair_coeff * * eam/alloy Mishin-Ni-Al-2009.eam.alloy Ni NULL
pair_coeff * * edip/multi NiAlO.edip Ni O



# Setup neighbor style
neighbor 1.0 nsq
neigh_modify once no every 1 delay 0 check yes

# Setup minimization style
min_style	     cg
min_modify	     dmax ${dmax} line quadratic
min_modify	     dmax 0.01 line quadratic

# Setup output
thermo		1
thermo_style custom step temp pe press pxx pyy pzz pxy pxz pyz lx ly lz vol
thermo_modify norm no


min_style cg
dump   1 all atom 1 generic.lammpstrj
minimize 0.0 1.0e-6 10000 1000000

CITE-CITE-CITE-CITE-CITE-CITE-CITE-CITE-CITE-CITE-CITE-CITE-CITE

Your simulation uses code contributions which should be cited:

- @article{cjiang2012
 author    = {Jian, Chao and Morgan, Dane, and Szlufarska, Izabella},
 title     = {Carbon tri-interstitial defect: A model for DII center},
 journal   = {Physical Review B},
 volume    = {86},
 pages     = {144118},
 year      = {2012},
}

@article{lpizzagalli2010,
 author    = {G. Lucas, M. Bertolus, and L. Pizzagalli},
 journal   = {J. Phys. : Condens. Matter 22},
 volume    = {22},
 pages     = {035802},
 year      = {2010},
}

CITE-CITE-CITE-CITE-CITE-CITE-CITE-CITE-CITE-CITE-CITE-CITE-CITE

Neighbor list info ...
  update every 1 steps, delay 0 steps, check yes
  max neighbors/atom: 2000, page size: 100000
  master list distance cutoff = 7.28721
  ghost atom cutoff = 7.28721
  3 neighbor lists, perpetual/occasional/extra = 3 0 0
  (1) pair eam/alloy, perpetual, skip from (3)
      attributes: half, newton on
      pair build: skip
      stencil: none
      bin: none
  (2) pair edip/multi, perpetual
      attributes: full, newton on
      pair build: full/nsq
      stencil: none
      bin: none
  (3) neighbor class addition, perpetual, half/full from (2)
      attributes: half, newton on
      pair build: halffull/newton
      stencil: none
      bin: none
Per MPI rank memory allocation (min/avg/max) = 7.312 | 7.312 | 7.312 Mbytes
   Step          Temp          PotEng         Press           Pxx            Pyy            Pzz            Pxy            Pxz            Pyz             Lx             Ly             Lz           Volume    
         0   294.73417     -12201.878     -14662.313      53576.896     -49511.273     -48052.562     -78977.197      1811.404       29.715026      24.430968      24.430968      24.430968      14582.166    
         1   294.73417     -12234.781     -53789.266      7833.2986     -82032.849     -87168.247     -81785.241      1537.9363      978.23795      24.430968      24.430968      24.430968      14582.166    
         2   294.73417     -12246.597     -49285.404      12555.569     -78280.851     -82130.931     -81487.981      105.80171      1793.0737      24.430968      24.430968      24.430968      14582.166    
         3   294.73417     -12253.248     -40382.49       22167.595     -70790.44      -72524.626     -81222.801      661.04257      878.92325      24.430968      24.430968      24.430968      14582.166    
         4   294.73417     -12257.692     -49074.156      15011.792     -80010.528     -82223.733     -79058.947      2481.9832      740.65698      24.430968      24.430968      24.430968      14582.166    
         5   294.73417     -12260.713     -54457.056      11610.452     -86374.584     -88607.035     -76413.015      3215.9345      120.66251      24.430968      24.430968      24.430968      14582.166    
         6   294.73417     -12261.996     -52790.876      13338.473     -84696.957     -87014.145     -76753.086      3146.3809     -47.106693      24.430968      24.430968      24.430968      14582.166    
         7   294.73417     -12262.875     -50312.658      15856.033     -82209.906     -84584.1       -77137.258      3057.5881     -147.63049      24.430968      24.430968      24.430968      14582.166    
         8   294.73417     -12263.516     -47871.939      18328.027     -79766.118     -82177.727     -77546.525      2918.0848     -182.58545      24.430968      24.430968      24.430968      14582.166    
         9   294.73417     -12264.076     -45738.094      20508.436     -77632.012     -80090.706     -78046.886      2655.3174     -166.33588      24.430968      24.430968      24.430968      14582.166    
        10   294.73417     -12265.651     -47817.605      18703.354     -79404.536     -82751.634     -79291.901      1223.1593     -509.79838      24.430968      24.430968      24.430968      14582.166    
        11   294.73417     -12266.275     -45899.065      21088.993     -77377.798     -81408.39      -78911.849      2378.1061     -674.20091      24.430968      24.430968      24.430968      14582.166    
        12   294.73417     -12266.78      -42962.507      24906.702     -74910.182     -78884.041     -78457.298      2956.4344     -280.39794      24.430968      24.430968      24.430968      14582.166    
        13   294.73417     -12267.259     -42904.473      25188.775     -75015.503     -78886.691     -78535.942      2807.5198     -240.52999      24.430968      24.430968      24.430968      14582.166    
        14   294.73417     -12267.531     -42600.764      25620.01      -74804.432     -78617.871     -78647.293      2724.9659     -246.63901      24.430968      24.430968      24.430968      14582.166    
        15   294.73417     -12267.722     -42211.741      26122.454     -74491.236     -78266.44      -78754.814      2648.3263     -255.29975      24.430968      24.430968      24.430968      14582.166    
        16   294.73417     -12267.874     -41759.094      26695.065     -74109.408     -77862.939     -78867.152      2527.9884     -280.04471      24.430968      24.430968      24.430968      14582.166    
        17   294.73417     -12268.055     -41142.203      27518.095     -73609.094     -77335.61      -78989.19       2227.7022     -366.85722      24.430968      24.430968      24.430968      14582.166    
        18   294.73417     -12268.152     -41440.024      27559.704     -73969.336     -77910.44      -78426.63       2640.3193     -451.40817      24.430968      24.430968      24.430968      14582.166    
        19   294.73417     -12268.202     -40396.522      28823.846     -73014.028     -76999.385     -78304.832      2764.8072     -446.2429       24.430968      24.430968      24.430968      14582.166    
        20   294.73417     -12268.372     -40095.326      29163.289     -72748.427     -76700.84      -78340.319      2739.2064     -424.99121      24.430968      24.430968      24.430968      14582.166    
        21   294.73417     -12268.494     -39737.623      29557.228     -72422.652     -76347.443     -78397.209      2709.3681     -409.4212       24.430968      24.430968      24.430968      14582.166    
        22   294.73417     -12268.58      -39297.202      30036.958     -72007.926     -75920.637     -78472.842      2672.0251     -397.03526      24.430968      24.430968      24.430968      14582.166    
        23   294.73417     -12268.664     -38656.106      30728.042     -71371.754     -75324.605     -78602.926      2593.042      -389.8224       24.430968      24.430968      24.430968      14582.166    
        24   294.73417     -12268.754     -38768.62       30579.047     -71193.566     -75691.343     -78686.647      2402.8647     -481.55816      24.430968      24.430968      24.430968      14582.166    
        25   294.73417     -12268.783     -38255.914      31140.488     -70643.458     -75264.772     -78733.896      2363.4737     -496.04393      24.430968      24.430968      24.430968      14582.166    
        26   294.73417     -12268.865     -37956.458      31485.916     -70381.27      -74974.019     -78742.498      2385.0761     -490.49697      24.430968      24.430968      24.430968      14582.166    
        27   294.73417     -12268.92      -37573.008      31925.808     -70047.804     -74597.029     -78753.275      2413.7535     -484.72699      24.430968      24.430968      24.430968      14582.166    
        28   294.73417     -12268.977     -36977.798      32628.767     -69552.293     -74009.869     -78739.742      2469.245      -481.26924      24.430968      24.430968      24.430968      14582.166    
        29   294.73417     -12269         -37023.163      32846.053     -69713.818     -74201.724     -78406.911      2509.3279     -597.0625       24.430968      24.430968      24.430968      14582.166    
        30   294.73417     -12269         -36982.127      32899.746     -69678.186     -74167.942     -78400.111      2511.6731     -599.30722      24.430968      24.430968      24.430968      14582.166    
        31   294.73417     -12269.07      -36780.783      33124.912     -69491.067     -73976.192     -78429.998      2510.0577     -581.6578       24.430968      24.430968      24.430968      14582.166    
        32   294.73417     -12269.115     -36529.941      33398.266     -69249.871     -73738.217     -78469.201      2510.0421     -565.1014       24.430968      24.430968      24.430968      14582.166    
        33   294.73417     -12269.144     -36253.561      33694.923     -68974.624     -73480.984     -78515.141      2511.0839     -549.37702      24.430968      24.430968      24.430968      14582.166    
        34   294.73417     -12269.173     -35889.872      34076.762     -68584.511     -73161.868     -78583.989      2511.7716     -530.96694      24.430968      24.430968      24.430968      14582.166    
        35   294.73417     -12269.218     -35797.268      34109.63      -68102.676     -73398.759     -78666.75       2428.9564     -551.69832      24.430968      24.430968      24.430968      14582.166    
        36   294.73417     -12269.238     -35296.507      34648.431     -67510.934     -73027.017     -78716.11       2403.754      -556.00308      24.430968      24.430968      24.430968      14582.166    
        37   294.73417     -12269.301     -35006.37       34986.669     -67268.305     -72737.474     -78720.921      2421.0272     -559.26671      24.430968      24.430968      24.430968      14582.166    
        38   294.73417     -12269.344     -34691.906      35360.358     -67022.323     -72413.754     -78723.212      2438.5598     -562.74798      24.430968      24.430968      24.430968      14582.166    
        39   294.73417     -12269.394     -34280.055      35891.348     -66754.225     -71977.287     -78693.957      2450.2171     -579.52428      24.430968      24.430968      24.430968      14582.166    
        40   294.73417     -12269.402     -34327.947      35849.401     -66805.805     -72027.437     -78679.926      2446.1677     -586.02527      24.430968      24.430968      24.430968      14582.166    
        41   294.73417     -12269.432     -34255.279      36097.684     -66821.472     -72042.048     -78487.506      2418.1717     -700.5645       24.430968      24.430968      24.430968      14582.166    
        42   294.73417     -12269.447     -33806.456      36645.222     -66419.657     -71644.934     -78457.646      2415.6159     -728.8047       24.430968      24.430968      24.430968      14582.166    
        43   294.73417     -12269.484     -33581.289      36882.094     -66194.682     -71431.28      -78502.518      2418.0943     -709.2367       24.430968      24.430968      24.430968      14582.166    
        44   294.73417     -12269.509     -33346.056      37120.97      -65944.877     -71214.263     -78552.089      2424.9187     -689.02909      24.430968      24.430968      24.430968      14582.166    
        45   294.73417     -12269.544     -33118.655      37314.046     -65627.239     -71042.773     -78623.784      2437.4748     -661.91397      24.430968      24.430968      24.430968      14582.166    
        46   294.73417     -12269.564     -33425.226      36965.378     -65845.6       -71395.457     -78606.27       2404.1627     -677.63829      24.430968      24.430968      24.430968      14582.166    
        47   294.73417     -12269.612     -32765.959      37658.968     -65105.346     -70851.499     -78694.781      2368.4924     -678.47366      24.430968      24.430968      24.430968      14582.166    
        48   294.73417     -12269.786     -29983.175      40952.514     -62298.909     -68603.13      -78657.157      2444.2404     -899.57192      24.430968      24.430968      24.430968      14582.166    
        49   294.73417     -12269.894     -28559.599      42499.788     -60693.96      -67484.624     -78664.945      2146.706      -1015.1764      24.430968      24.430968      24.430968      14582.166    
        50   294.73417     -12269.978     -28039.021      42828.555     -59844.234     -67101.386     -78765.281      2132.338      -988.58654      24.430968      24.430968      24.430968      14582.166    
        51   294.73417     -12270.001     -28446.738      42346.095     -60157.173     -67529.135     -78794.523      2131.0807     -962.31527      24.430968      24.430968      24.430968      14582.166    
        52   294.73417     -12270.016     -28167.938      42627.158     -59803.481     -67327.492     -78907.115      2156.5449     -941.61705      24.430968      24.430968      24.430968      14582.166    
        53   294.73417     -12270.034     -27921.525      42880.997     -59478.169     -67167.404     -78877.533      2028.4737     -996.6664       24.430968      24.430968      24.430968      14582.166    
        54   294.73417     -12270.068     -27438.551      43340.785     -58905.986     -66750.454     -78868.155      1874.6863     -1107.4266      24.430968      24.430968      24.430968      14582.166    
        55   294.73417     -12270.085     -27233.744      43475.923     -58629.867     -66547.287     -78941.613      1984.334      -1093.7621      24.430968      24.430968      24.430968      14582.166    
        56   294.73417     -12270.092     -27419.429      43217.555     -58746.376     -66729.467     -78966.002      2016.1403     -1060.3372      24.430968      24.430968      24.430968      14582.166    
        57   294.73417     -12270.099     -27410.732      43135.298     -58679.589     -66687.905     -79009.305      2017.8812     -1058.2399      24.430968      24.430968      24.430968      14582.166    
        58   294.73417     -12270.109     -27149.87       43335.657     -58364.319     -66420.948     -78966.906      1906.8105     -1112.5275      24.430968      24.430968      24.430968      14582.166    
        59   294.73417     -12270.129     -27224.029      43165.321     -58279.853     -66557.554     -78983.442      1915.0546     -1147.498       24.430968      24.430968      24.430968      14582.166    
        60   294.73417     -12270.18      -26653.187      43405.161     -57295.224     -66069.499     -79160.362      1928.9485     -1161.934       24.430968      24.430968      24.430968      14582.166    
        61   294.73417     -12270.246     -25460.519      44022.178     -55578.094     -64825.641     -79287.992      1684.8708     -1281.7876      24.430968      24.430968      24.430968      14582.166    
        62   294.73417     -12270.272     -25812.687      43472.764     -55719.759     -65191.066     -79262.609      1638.5988     -1308.9781      24.430968      24.430968      24.430968      14582.166    
        63   294.73417     -12270.291     -25641.036      43487.142     -55386.92      -65023.329     -79303.764      1675.833      -1331.2254      24.430968      24.430968      24.430968      14582.166    
        64   294.73417     -12270.296     -25295.622      43795.577     -54997.167     -64685.274     -79348.125      1644.8156     -1338.5815      24.430968      24.430968      24.430968      14582.166    
        65   294.73417     -12270.301     -25379.792      43742.324     -55048.924     -64832.776     -79359.165      1570.4999     -1336.6639      24.430968      24.430968      24.430968      14582.166    
        66   294.73417     -12270.321     -24418.94       44644.82      -53904.244     -63997.395     -79413.925      1446.1419     -1403.8541      24.430968      24.430968      24.430968      14582.166    
        67   294.73417     -12270.348     -23330.68       45569.585     -52495.719     -63065.905     -79473.356      1310.2845     -1422.6008      24.430968      24.430968      24.430968      14582.166    
        68   294.73417     -12270.36      -23439.45       45385.178     -52536.024     -63167.502     -79495.67       1298.2813     -1416.5856      24.430968      24.430968      24.430968      14582.166    
        69   294.73417     -12270.368     -23466.619      45219.459     -52506.088     -63113.228     -79528.975      1308.8501     -1441.5741      24.430968      24.430968      24.430968      14582.166    
        70   294.73417     -12270.371     -23549.601      45098.783     -52563.07      -63184.515     -79516.087      1322.2693     -1430.4792      24.430968      24.430968      24.430968      14582.166    
        71   294.73417     -12270.373     -23552.017      45076.925     -52536.079     -63196.898     -79473.375      1341.2662     -1427.9832      24.430968      24.430968      24.430968      14582.166    
        72   294.73417     -12270.374     -23329.847      45197.57      -52211.564     -62975.546     -79418.034      1300.6041     -1473.3108      24.430968      24.430968      24.430968      14582.166    
        73   294.73417     -12270.378     -23396.545      45133.027     -52274.931     -63047.732     -79412.378      1311.486      -1463.547       24.430968      24.430968      24.430968      14582.166    
        74   294.73417     -12270.379     -23424.697      45105.47      -52300.461     -63079.1       -79410.081      1319.3108     -1457.6789      24.430968      24.430968      24.430968      14582.166    
        75   294.73417     -12270.38      -23437.606      45091.764     -52310.581     -63094         -79409.334      1325.7714     -1453.6786      24.430968      24.430968      24.430968      14582.166    
        76   294.73417     -12270.381     -23440.414      45084.711     -52307.929     -63098.024     -79410.335      1332.9105     -1450.5237      24.430968      24.430968      24.430968      14582.166    
        77   294.73417     -12270.386     -23184.597      45218.37      -51934.207     -62837.955     -79463.849      1327.5143     -1475.2491      24.430968      24.430968      24.430968      14582.166    
        78   294.73417     -12270.393     -22885.97       45337.618     -51405.469     -62590.06      -79530.147      1303.6275     -1494.6461      24.430968      24.430968      24.430968      14582.166    
        79   294.73417     -12270.402     -22884.884      45333.971     -51361.274     -62627.349     -79524.481      1283.219      -1494.9251      24.430968      24.430968      24.430968      14582.166    
        80   294.73417     -12270.409     -22859.712      45379.566     -51304.909     -62653.793     -79504.907      1242.1578     -1502.0708      24.430968      24.430968      24.430968      14582.166    
        81   294.73417     -12270.414     -22813.141      45424.921     -51199.109     -62665.234     -79458.982      1174.7392     -1534.4301      24.430968      24.430968      24.430968      14582.166    
        82   294.73417     -12270.415     -22789.629      45445.203     -51156.712     -62657.379     -79446.809      1165.984      -1536.339       24.430968      24.430968      24.430968      14582.166    
        83   294.73417     -12270.416     -22780.707      45448.912     -51144.755     -62646.279     -79447.558      1173.6482     -1531.4612      24.430968      24.430968      24.430968      14582.166    
        84   294.73417     -12270.417     -22767.036      45452.615     -51126.569     -62627.154     -79448.998      1182.3912     -1527.2817      24.430968      24.430968      24.430968      14582.166    
        85   294.73417     -12270.42      -22712.491      45423.952     -51036.17      -62525.254     -79455.466      1217.5186     -1519.7137      24.430968      24.430968      24.430968      14582.166    
        86   294.73417     -12270.432     -22240.492      45499.03      -50093.342     -62127.164     -79350.261      1121.37       -1552.5472      24.430968      24.430968      24.430968      14582.166    
        87   294.73417     -12270.444     -21839.989      45641.069     -49352.048     -61808.989     -79263.859      1089.7567     -1550.2593      24.430968      24.430968      24.430968      14582.166    
        88   294.73417     -12270.45      -21787.481      45721.946     -49322.768     -61761.621     -79273.732      1114.3357     -1540.3037      24.430968      24.430968      24.430968      14582.166    
        89   294.73417     -12270.46      -21653.172      45942.63      -49256.027     -61646.117     -79343.61       1137.9701     -1537.7216      24.430968      24.430968      24.430968      14582.166    
        90   294.73417     -12270.463     -21642.522      45976.574     -49224.942     -61679.197     -79386.729      1100.1233     -1549.5281      24.430968      24.430968      24.430968      14582.166    
        91   294.73417     -12270.464     -21681.112      45928.304     -49218.883     -61752.758     -79396.376      1065.8653     -1566.9376      24.430968      24.430968      24.430968      14582.166    
        92   294.73417     -12270.465     -21680.318      45928.166     -49191.341     -61777.78      -79403.586      1048.4395     -1579.7503      24.430968      24.430968      24.430968      14582.166    
        93   294.73417     -12270.466     -21664.408      45946.741     -49181.621     -61758.346     -79403.554      1054.6403     -1578.9295      24.430968      24.430968      24.430968      14582.166    
        94   294.73417     -12270.467     -21625.369      45986.156     -49154.125     -61708.137     -79405.889      1066.1988     -1577.7464      24.430968      24.430968      24.430968      14582.166    
        95   294.73417     -12270.467     -21556.013      46014.934     -49028.2       -61654.773     -79436.569      1036.2013     -1587.0826      24.430968      24.430968      24.430968      14582.166    
        96   294.73417     -12270.467     -21543.694      46022.015     -49007.294     -61645.804     -79440.565      1032.8193     -1588.2066      24.430968      24.430968      24.430968      14582.166    
        97   294.73417     -12270.47      -21535.95       46031.585     -48993.704     -61645.732     -79437.654      1037.0927     -1586.7398      24.430968      24.430968      24.430968      14582.166    
        98   294.73417     -12270.471     -21530.22       46038.915     -48985.576     -61643.999     -79433.944      1040.4362     -1586.4217      24.430968      24.430968      24.430968      14582.166    
        99   294.73417     -12270.471     -21525.148      46043.765     -48976.265     -61642.944     -79429.183      1042.8203     -1587.1371      24.430968      24.430968      24.430968      14582.166    
       100   294.73417     -12270.473     -21524.63       46014.704     -48920.765     -61667.83      -79386.688      1039.9655     -1603.4071      24.430968      24.430968      24.430968      14582.166    
       101   294.73417     -12270.476     -21233.422      46093.076     -48349.84      -61443.5       -79390.772      918.65877     -1644.9349      24.430968      24.430968      24.430968      14582.166    
       102   294.73417     -12270.477     -20945.87       46189.447     -47791.017     -61236.04      -79390.677      834.1181      -1665.986       24.430968      24.430968      24.430968      14582.166    
       103   294.73417     -12270.496     -20891.153      46180.674     -47620.71      -61233.422     -79370.44       837.06932     -1648.1945      24.430968      24.430968      24.430968      14582.166    
       104   294.73417     -12270.502     -20857.159      46222.336     -47585.968     -61207.844     -79362.863      863.88062     -1638.3054      24.430968      24.430968      24.430968      14582.166    
       105   294.73417     -12270.505     -20808.059      46274.342     -47533.785     -61164.734     -79359.042      886.66766     -1632.4469      24.430968      24.430968      24.430968      14582.166    
       106   294.73417     -12270.507     -20736.209      46344.196     -47452.931     -61099.891     -79357.612      913.72625     -1627.6312      24.430968      24.430968      24.430968      14582.166    
       107   294.73417     -12270.508     -20653.433      46411.073     -47341.394     -61029.978     -79373.627      921.88162     -1630.7699      24.430968      24.430968      24.430968      14582.166    
       108   294.73417     -12270.508     -20605.248      46458.411     -47282.181     -60991.975     -79382.033      922.65117     -1631.5023      24.430968      24.430968      24.430968      14582.166    
       109   294.73417     -12270.509     -20607.359      46458.076     -47283.102     -60997.05      -79381.902      917.14124     -1632.4238      24.430968      24.430968      24.430968      14582.166    
       110   294.73417     -12270.51      -20652.533      46394.175     -47307.453     -61044.321     -79369.751      888.1728      -1642.2674      24.430968      24.430968      24.430968      14582.166    
       111   294.73417     -12270.511     -20621.863      46415.304     -47259.189     -61021.706     -79366.981      879.34423     -1645.8756      24.430968      24.430968      24.430968      14582.166    
       112   294.73417     -12270.512     -20573.321      46460.143     -47201.852     -60978.255     -79372.387      889.18988     -1643.6223      24.430968      24.430968      24.430968      14582.166    
       113   294.73417     -12270.513     -20513.63       46497.615     -47113.627     -60924.877     -79382.848      900.9804      -1639.2324      24.430968      24.430968      24.430968      14582.166    
       114   294.73417     -12270.513     -20468.242      46537.42      -47055.756     -60886.389     -79387.508      904.42814     -1637.1028      24.430968      24.430968      24.430968      14582.166    
       115   294.73417     -12270.514     -20469.314      46537.19      -47054.921     -60890.211     -79384.283      899.06023     -1638.3562      24.430968      24.430968      24.430968      14582.166    
       116   294.73417     -12270.514     -20524.647      46457.229     -47086.204     -60944.965     -79363.553      878.11573     -1646.7009      24.430968      24.430968      24.430968      14582.166    
       117   294.73417     -12270.515     -20513.582      46441.567     -47038.986     -60943.326     -79344.849      858.7978      -1654.2765      24.430968      24.430968      24.430968      14582.166    
       118   294.73417     -12270.517     -20463.205      46488.61      -46977.705     -60900.521     -79348.749      862.13793     -1652.5941      24.430968      24.430968      24.430968      14582.166    
       119   294.73417     -12270.518     -20407.711      46541.354     -46913.341     -60851.145     -79359.513      871.28542     -1648.7118      24.430968      24.430968      24.430968      14582.166    
       120   294.73417     -12270.519     -20353.854      46576.582     -46833.327     -60804.816     -79374.542      882.36984     -1641.9273      24.430968      24.430968      24.430968      14582.166    
       121   294.73417     -12270.519     -20319.603      46608.092     -46791.084     -60775.819     -79378.1        884.35068     -1640.8531      24.430968      24.430968      24.430968      14582.166    
       122   294.73417     -12270.52      -20314.901      46611.212     -46778.874     -60777.042     -79369.435      875.08606     -1645.5789      24.430968      24.430968      24.430968      14582.166    
       123   294.73417     -12270.521     -20338.964      46569.968     -46783.97      -60802.89      -79360.816      866.49599     -1648.7725      24.430968      24.430968      24.430968      14582.166    
       124   294.73417     -12270.567     -17993.011      47841.624     -42843.974     -58976.683     -79227.953      618.04507     -1744.8972      24.430968      24.430968      24.430968      14582.166    
       125   294.73417     -12270.611     -16291.771      48242.493     -39208.075     -57909.731     -79013.745      315.84901     -1785.8755      24.430968      24.430968      24.430968      14582.166    
       126   294.73417     -12270.624     -15286.948      48902.137     -37618.912     -57144.069     -79037.508      251.27376     -1756.7042      24.430968      24.430968      24.430968      14582.166    
       127   294.73417     -12270.625     -15365.45       48830.539     -37690.686     -57236.203     -79033.681      265.28161     -1759.973       24.430968      24.430968      24.430968      14582.166    
       128   294.73417     -12270.626     -15100.632      49100.409     -37424.046     -56978.259     -79059.362      265.31552     -1759.3126      24.430968      24.430968      24.430968      14582.166    
       129   294.73417     -12270.627     -15179.026      49031.528     -37507.565     -57061.042     -79060.851      268.56025     -1754.1253      24.430968      24.430968      24.430968      14582.166    
       130   294.73417     -12270.627     -15272.76       48940.708     -37617.009     -57141.98      -79052.5        265.22505     -1741.5426      24.430968      24.430968      24.430968      14582.166    
       131   294.73417     -12270.628     -15175.865      49036.91      -37537.26      -57027.243     -79060.709      250.80455     -1731.1785      24.430968      24.430968      24.430968      14582.166    
       132   294.73417     -12270.629     -15186.616      49029.248     -37593.445     -56995.652     -79063.241      234.01326     -1690.3506      24.430968      24.430968      24.430968      14582.166    
       133   294.73417     -12270.63      -15260.276      48959.709     -37673.232     -57067.304     -79059.438      239.29406     -1682.354       24.430968      24.430968      24.430968      14582.166    
       134   294.73417     -12270.631     -15237.433      48987.826     -37637.418     -57062.707     -79064.312      255.92749     -1692.4411      24.430968      24.430968      24.430968      14582.166    
       135   294.73417     -12270.631     -15177.948      49044.881     -37575.323     -57003.403     -79068.474      255.87856     -1697.4064      24.430968      24.430968      24.430968      14582.166    
       136   294.73417     -12270.632     -15234.608      48993.044     -37635.579     -57061.29      -79074.236      266.10701     -1723.2382      24.430968      24.430968      24.430968      14582.166    
       137   294.73417     -12270.633     -15131.917      49082.917     -37532.684     -56945.985     -79088.898      282.80844     -1740.0304      24.430968      24.430968      24.430968      14582.166    
       138   294.73417     -12270.634     -15341.525      48852.339     -37754.988     -57121.925     -79096.62       297.84344     -1761.3641      24.430968      24.430968      24.430968      14582.166    
       139   294.73417     -12270.635     -15357.586      48835.247     -37780.911     -57127.094     -79102.899      304.93182     -1751.222       24.430968      24.430968      24.430968      14582.166    
       140   294.73417     -12270.637     -15403.332      48805.131     -37873.585     -57141.541     -79116.852      282.75925     -1705.4031      24.430968      24.430968      24.430968      14582.166    
       141   294.73417     -12270.638     -15375.195      48847.785     -37875.243     -57098.129     -79117.952      281.7711      -1665.852       24.430968      24.430968      24.430968      14582.166    
       142   294.73417     -12270.638     -15365.812      48861.542     -37867.37      -57091.609     -79112.697      285.20311     -1661.9235      24.430968      24.430968      24.430968      14582.166    
       143   294.73417     -12270.639     -15341.903      48899.533     -37846.612     -57078.631     -79097.081      288.39878     -1658.4598      24.430968      24.430968      24.430968      14582.166    
       144   294.73417     -12270.639     -15305.21       48941.594     -37809.069     -57048.155     -79096.783      282.20306     -1671.1168      24.430968      24.430968      24.430968      14582.166    
       145   294.73417     -12270.639     -15270.678      48985.751     -37777.087     -57020.697     -79095.5        279.20228     -1685.8974      24.430968      24.430968      24.430968      14582.166    
       146   294.73417     -12270.639     -15285.193      48972.783     -37794.235     -57034.128     -79092.567      282.19221     -1683.7744      24.430968      24.430968      24.430968      14582.166    
       147   294.73417     -12270.64      -15313.749      48941.765     -37826.121     -57056.891     -79089.12       286.52276     -1676.5441      24.430968      24.430968      24.430968      14582.166    
       148   294.73417     -12270.64      -15311.524      48934.629     -37826.995     -57042.206     -79094.614      286.42961     -1671.9663      24.430968      24.430968      24.430968      14582.166    
       149   294.73417     -12270.64      -15347.824      48893.596     -37871.745     -57065.324     -79100.144      288.39375     -1662.3475      24.430968      24.430968      24.430968      14582.166    
       150   294.73417     -12270.64      -15354.943      48891.031     -37880.741     -57075.117     -79099.673      287.81344     -1661.5389      24.430968      24.430968      24.430968      14582.166    
       151   294.73417     -12270.64      -15308.538      48951.708     -37835.913     -57041.409     -79097.621      281.25795     -1665.5062      24.430968      24.430968      24.430968      14582.166    
       152   294.73417     -12270.64      -15315.183      48947.613     -37845.03      -57048.134     -79094.266      283.27335     -1664.6326      24.430968      24.430968      24.430968      14582.166    
       153   294.73417     -12270.641     -15354.192      48894.04      -37893.183     -57063.433     -79085.318      295.34864     -1665.2713      24.430968      24.430968      24.430968      14582.166    
       154   294.73417     -12270.641     -15396.029      48845.332     -37947.116     -57086.304     -79078.411      306.52655     -1662.6897      24.430968      24.430968      24.430968      14582.166    
       155   294.73417     -12270.642     -15396.946      48857.879     -37952.844     -57095.873     -79082.037      299.4714      -1662.0631      24.430968      24.430968      24.430968      14582.166    
       156   294.73417     -12270.642     -15333.78       48933.296     -37890.141     -57044.495     -79087.905      287.75961     -1662.2048      24.430968      24.430968      24.430968      14582.166    
       157   294.73417     -12270.642     -15309.571      48966.673     -37868.518     -57026.868     -79089.925      283.21666     -1659.5434      24.430968      24.430968      24.430968      14582.166    
       158   294.73417     -12270.643     -15320.722      48955.537     -37880.874     -57036.828     -79089.171      284.81761     -1658.481       24.430968      24.430968      24.430968      14582.166    
       159   294.73417     -12270.643     -15328.917      48946.75      -37889.925     -57043.575     -79088.811      286.07976     -1657.9539      24.430968      24.430968      24.430968      14582.166    
       160   294.73417     -12270.643     -15354.085      48917.714     -37918.047     -57061.923     -79088.523      290.29977     -1656.9153      24.430968      24.430968      24.430968      14582.166    
       161   294.73417     -12270.643     -15359.978      48901.84      -37926.914     -57054.86      -79092.043      292.66776     -1658.6144      24.430968      24.430968      24.430968      14582.166    
       162   294.73417     -12270.643     -15378.732      48874.825     -37952.465     -57058.556     -79094.646      296.50533     -1657.9229      24.430968      24.430968      24.430968      14582.166    
       163   294.73417     -12270.643     -15395.623      48860.975     -37973.934     -57073.91      -79093.17       297.80584     -1655.2073      24.430968      24.430968      24.430968      14582.166    
       164   294.73417     -12270.644     -15381.304      48888.533     -37960.467     -57071.979     -79090.251      293.41523     -1653.4454      24.430968      24.430968      24.430968      14582.166    
       165   294.73417     -12270.644     -15336.299      48938.321     -37913.817     -57033.4       -79091.08       288.92097     -1655.1802      24.430968      24.430968      24.430968      14582.166    
       166   294.73417     -12270.644     -15317.224      48963.843     -37895.173     -57020.343     -79090.11       286.37873     -1655.6027      24.430968      24.430968      24.430968      14582.166    
       167   294.73417     -12270.644     -15326.619      48955.352     -37905.492     -57029.717     -79089.338      287.10926     -1655.1221      24.430968      24.430968      24.430968      14582.166    
       168   294.73417     -12270.644     -15334.499      48947.24      -37914.017     -57036.721     -79088.981      287.9634      -1654.8033      24.430968      24.430968      24.430968      14582.166    
       169   294.73417     -12270.644     -15351.859      48928.121     -37932.916     -57050.781     -79088.483      290.2933      -1654.2804      24.430968      24.430968      24.430968      14582.166    
       170   294.73417     -12270.644     -15353.732      48915.197     -37936.144     -57040.247     -79090.582      293.81619     -1655.9611      24.430968      24.430968      24.430968      14582.166    
       171   294.73417     -12270.644     -15387.628      48869.439     -37976.534     -57055.79      -79090.681      300.75234     -1656.2779      24.430968      24.430968      24.430968      14582.166    
       172   294.73417     -12270.645     -15401.209      48859.531     -37993.362     -57069.796     -79088.982      301.34295     -1654.8308      24.430968      24.430968      24.430968      14582.166    
       173   294.73417     -12270.645     -15362.368      48918.872     -37955.967     -57050.01      -79086.976      293.10758     -1652.365       24.430968      24.430968      24.430968      14582.166    
       174   294.73417     -12270.645     -15336.352      48945.608     -37928.82      -57025.844     -79088.196      289.66294     -1653.8669      24.430968      24.430968      24.430968      14582.166    
       175   294.73417     -12270.645     -15328.693      48954.321     -37921.373     -57019.026     -79088.526      288.71806     -1654.1097      24.430968      24.430968      24.430968      14582.166    
       176   294.73417     -12270.645     -15334.056      48950.07      -37927.746     -57024.491     -79088.184      289.42465     -1653.5145      24.430968      24.430968      24.430968      14582.166    
       177   294.73417     -12270.645     -15338.266      48946.045     -37932.457     -57028.387     -79087.985      290.01981     -1653.1835      24.430968      24.430968      24.430968      14582.166    
       178   294.73417     -12270.645     -15344.834      48939.38      -37939.805     -57034.078     -79087.736      291.01754     -1652.7286      24.430968      24.430968      24.430968      14582.166    
       179   294.73417     -12270.646     -15392.352      48873.818     -37992.715     -57058.159     -79087.9        300.19262     -1652.4788      24.430968      24.430968      24.430968      14582.166    
       180   294.73417     -12270.649     -15385.719      48892.598     -38039.985     -57009.771     -79071.535      301.51754     -1643.8191      24.430968      24.430968      24.430968      14582.166    
       181   294.73417     -12270.659     -15357.172      48976.725     -38169.663     -56878.578     -79038.246      299.83259     -1617.7396      24.430968      24.430968      24.430968      14582.166    
       182   294.73417     -12270.662     -15324.136      49033.014     -38232.189     -56773.235     -79019.033      305.42425     -1602.7042      24.430968      24.430968      24.430968      14582.166    
       183   294.73417     -12270.664     -15317.875      49034.702     -38226.224     -56762.104     -79021.525      307.98028     -1603.5019      24.430968      24.430968      24.430968      14582.166    
       184   294.73417     -12270.664     -15309.63       49038.039     -38217.715     -56749.214     -79025.265      310.79501     -1604.6944      24.430968      24.430968      24.430968      14582.166    
       185   294.73417     -12270.665     -15302.021      49038.465     -38208.836     -56735.692     -79031.136      314.69955     -1606.5056      24.430968      24.430968      24.430968      14582.166    
       186   294.73417     -12270.665     -15299.55       49020.391     -38199.641     -56719.399     -79047.185      324.32864     -1611.0871      24.430968      24.430968      24.430968      14582.166    
       187   294.73417     -12270.665     -15286.461      49028.077     -38180.972     -56706.49      -79049.8        323.70891     -1611.3685      24.430968      24.430968      24.430968      14582.166    
       188   294.73417     -12270.665     -15231.253      49058.358     -38092.025     -56660.091     -79057.129      317.43381     -1613.491       24.430968      24.430968      24.430968      14582.166    
       189   294.73417     -12270.665     -15163.446      49098.303     -37989.64      -56599         -79063.936      313.99698     -1615.8542      24.430968      24.430968      24.430968      14582.166    
       190   294.73417     -12270.666     -15140.431      49111.188     -37956.814     -56575.666     -79065.035      315.72998     -1616.9907      24.430968      24.430968      24.430968      14582.166    
       191   294.73417     -12270.666     -15140.031      49109.253     -37955.804     -56573.541     -79064.199      318.08042     -1617.794       24.430968      24.430968      24.430968      14582.166    
       192   294.73417     -12270.666     -15142.403      49099.11      -37955.033     -56571.286     -79061.145      325.02959     -1620.5477      24.430968      24.430968      24.430968      14582.166    
       193   294.73417     -12270.666     -15147.188      49085.453     -37952.203     -56574.814     -79056.533      328.52569     -1622.4713      24.430968      24.430968      24.430968      14582.166    
       194   294.73417     -12270.666     -15147.112      49083.503     -37950.318     -56574.522     -79055.424      329.07741     -1622.798       24.430968      24.430968      24.430968      14582.166    
       195   294.73417     -12270.666     -15144.687      49085.01      -37946.895     -56572.177     -79054.766      328.67245     -1622.6482      24.430968      24.430968      24.430968      14582.166    
       196   294.73417     -12270.666     -15143.236      49086.124     -37944.9       -56570.933     -79054.526      328.20232     -1622.5175      24.430968      24.430968      24.430968      14582.166    
       197   294.73417     -12270.666     -15140.96       49087.692     -37941.469     -56569.103     -79054.138      327.33849     -1622.3314      24.430968      24.430968      24.430968      14582.166    
       198   294.73417     -12270.666     -15120.471      49097.087     -37903.87      -56554.63      -79050.493      317.61249     -1621.2266      24.430968      24.430968      24.430968      14582.166    
       199   294.73417     -12270.667     -15075.077      49102.496     -37810.388     -56517.339     -79047.338      306.01953     -1624.7436      24.430968      24.430968      24.430968      14582.166    
       200   294.73417     -12270.667     -15038.335      49102.988     -37733.145     -56484.847     -79045.246      299.37965     -1629.6702      24.430968      24.430968      24.430968      14582.166    
       201   294.73417     -12270.667     -15028.542      49097.298     -37709.096     -56473.829     -79044.88       300.25028     -1633.4456      24.430968      24.430968      24.430968      14582.166    
       202   294.73417     -12270.667     -15029.332      49093.908     -37709.628     -56472.277     -79045.89       303.61158     -1635.4562      24.430968      24.430968      24.430968      14582.166    
       203   294.73417     -12270.668     -15031.965      49082.003     -37709.714     -56468.185     -79050.049      314.55521     -1641.692       24.430968      24.430968      24.430968      14582.166    
       204   294.73417     -12270.668     -15036.455      49069.87      -37708.212     -56471.024     -79053.815      319.77141     -1644.5728      24.430968      24.430968      24.430968      14582.166    
       205   294.73417     -12270.668     -15034.574      49071.706     -37706.089     -56469.34      -79053.817      319.37326     -1644.5336      24.430968      24.430968      24.430968      14582.166    
       206   294.73417     -12270.668     -15033.122      49073.033     -37704.321     -56468.078     -79053.879      319.09303     -1644.4909      24.430968      24.430968      24.430968      14582.166    
       207   294.73417     -12270.668     -15031.009      49074.834     -37701.577     -56466.283     -79054.026      318.70109     -1644.4151      24.430968      24.430968      24.430968      14582.166    
       208   294.73417     -12270.668     -15020.649      49082.332     -37686.461     -56457.819     -79055.206      316.90208     -1643.9506      24.430968      24.430968      24.430968      14582.166    
       209   294.73417     -12270.668     -14988.574      49092.267     -37625.316     -56432.673     -79062.118      313.67111     -1642.8513      24.430968      24.430968      24.430968      14582.166    
       210   294.73417     -12270.668     -14959.148      49101.293     -37571.42      -56407.315     -79067.669      312.77525     -1643.2404      24.430968      24.430968      24.430968      14582.166    
       211   294.73417     -12270.668     -14950.4        49103.249     -37556.571     -56397.878     -79068.655      314.31185     -1644.5492      24.430968      24.430968      24.430968      14582.166    
       212   294.73417     -12270.668     -14949.349      49102.378     -37555.128     -56395.296     -79068.339      316.06065     -1645.6344      24.430968      24.430968      24.430968      14582.166    
       213   294.73417     -12270.668     -14948.442      49097.081     -37552.295     -56390.113     -79067.257      321.09321     -1648.5809      24.430968      24.430968      24.430968      14582.166    
       214   294.73417     -12270.668     -14955.879      49078.905     -37553.706     -56392.835     -79064.319      326.42092     -1651.5338      24.430968      24.430968      24.430968      14582.166    
       215   294.73417     -12270.668     -14957.481      49068.612     -37550.117     -56390.938     -79061.548      329.68394     -1653.9057      24.430968      24.430968      24.430968      14582.166    
       216   294.73417     -12270.669     -14954.945      49070.194     -37546.663     -56388.366     -79061.015      329.1621      -1654.0288      24.430968      24.430968      24.430968      14582.166    
       217   294.73417     -12270.669     -14952.71       49072.439     -37544.003     -56386.566     -79060.887      328.27269     -1653.8169      24.430968      24.430968      24.430968      14582.166    
       218   294.73417     -12270.669     -14948.141      49076.614     -37537.961     -56383.076     -79060.609      326.13742     -1653.2607      24.430968      24.430968      24.430968      14582.166    
       219   294.73417     -12270.669     -14941.204      49076.943     -37521.1       -56379.455     -79059.804      319.37598     -1651.3191      24.430968      24.430968      24.430968      14582.166    
       220   294.73417     -12270.669     -14926.821      49078.872     -37492.444     -56366.892     -79059.223      313.12894     -1650.9109      24.430968      24.430968      24.430968      14582.166    
       221   294.73417     -12270.669     -14912.924      49066.589     -37461.078     -56344.284     -79061.416      321.84802     -1658.136       24.430968      24.430968      24.430968      14582.166    
       222   294.73417     -12270.669     -14918.414      49026.789     -37441.688     -56340.343     -79062.947      332.07694     -1665.4123      24.430968      24.430968      24.430968      14582.166    
       223   294.73417     -12270.669     -14914.162      49031.942     -37437.411     -56337.016     -79062.633      330.42966     -1664.9489      24.430968      24.430968      24.430968      14582.166    
       224   294.73417     -12270.669     -14911.001      49035.676     -37433.966     -56334.714     -79062.42       329.04255     -1664.4663      24.430968      24.430968      24.430968      14582.166    
       225   294.73417     -12270.669     -14905.107      49042.386     -37426.857     -56330.85      -79061.974      325.91395     -1663.2132      24.430968      24.430968      24.430968      14582.166    
       226   294.73417     -12270.669     -14902.78       49042.259     -37418.795     -56331.804     -79061.377      321.21785     -1660.541       24.430968      24.430968      24.430968      14582.166    
       227   294.73417     -12270.669     -14892.35       49046.997     -37400.125     -56323.921     -79061.201      316.88787     -1658.5969      24.430968      24.430968      24.430968      14582.166    
       228   294.73417     -12270.67      -14885.426      49046.404     -37388.667     -56314.016     -79062.427      320.49958     -1660.5983      24.430968      24.430968      24.430968      14582.166    
       229   294.73417     -12270.67      -14890.609      49026.637     -37385.268     -56313.194     -79063.982      328.25302     -1663.9498      24.430968      24.430968      24.430968      14582.166    
       230   294.73417     -12270.67      -14889.954      49019.584     -37379.821     -56309.624     -79064.668      331.62886     -1665.7289      24.430968      24.430968      24.430968      14582.166    
       231   294.73417     -12270.67      -14887.102      49021.55      -37376.095     -56306.761     -79064.597      331.23723     -1665.8233      24.430968      24.430968      24.430968      14582.166    
       232   294.73417     -12270.67      -14884.522      49024.263     -37373.132     -56304.698     -79064.412      330.21776     -1665.5521      24.430968      24.430968      24.430968      14582.166    
       233   294.73417     -12270.67      -14877.846      49030.43      -37364.187     -56299.781     -79063.764      326.75765     -1664.4241      24.430968      24.430968      24.430968      14582.166    
       234   294.73417     -12270.67      -14878.135      49022.43      -37355.282     -56301.552     -79062.851      322.626       -1662.4071      24.430968      24.430968      24.430968      14582.166    
       235   294.73417     -12270.67      -14873.836      49018.271     -37342.284     -56297.496     -79062.476      320.04353     -1661.5267      24.430968      24.430968      24.430968      14582.166    
       236   294.73417     -12270.67      -14868.977      49019.154     -37334.457     -56291.628     -79062.779      320.46992     -1662.1342      24.430968      24.430968      24.430968      14582.166    
       237   294.73417     -12270.67      -14866.578      49019.799     -37331.415     -56288.118     -79063.21       321.78733     -1662.9251      24.430968      24.430968      24.430968      14582.166    
       238   294.73417     -12270.67      -14861.917      49017.325     -37323.607     -56279.469     -79064.622      326.55236     -1665.4784      24.430968      24.430968      24.430968      14582.166    
       239   294.73417     -12270.67      -14868.991      48996.684     -37322.391     -56281.265     -79065.679      332.20708     -1667.8381      24.430968      24.430968      24.430968      14582.166    
       240   294.73417     -12270.67      -14869.284      48988.517     -37317.633     -56278.735     -79066.25       334.79185     -1669.1819      24.430968      24.430968      24.430968      14582.166    
       241   294.73417     -12270.67      -14864.847      48990.878     -37311.522     -56273.895     -79066.307      334.5127      -1669.424       24.430968      24.430968      24.430968      14582.166    
       242   294.73417     -12270.67      -14861.937      48993.928     -37308.319     -56271.42      -79066.199      333.59255     -1669.1757      24.430968      24.430968      24.430968      14582.166    
       243   294.73417     -12270.67      -14855.979      48999.627     -37300.946     -56266.619     -79065.853      331.07603     -1668.3356      24.430968      24.430968      24.430968      14582.166    
       244   294.73417     -12270.67      -14857.594      48991.057     -37294.272     -56269.565     -79064.852      326.42984     -1665.8485      24.430968      24.430968      24.430968      14582.166    
       245   294.73417     -12270.67      -14850.529      48986.571     -37275.683     -56262.475     -79064.372      322.13703     -1664.1333      24.430968      24.430968      24.430968      14582.166    
       246   294.73417     -12270.67      -14845.937      48987.688     -37268.931     -56256.568     -79064.852      323.08714     -1664.8679      24.430968      24.430968      24.430968      14582.166    
       247   294.73417     -12270.671     -14841.511      48987.125     -37262.644     -56249.013     -79066.022      326.86718     -1666.8983      24.430968      24.430968      24.430968      14582.166    
       248   294.73417     -12270.671     -14848.718      48966.932     -37263.211     -56249.874     -79067.429      333.99385     -1669.843       24.430968      24.430968      24.430968      14582.166    
       249   294.73417     -12270.671     -14845.401      48958.009     -37253.202     -56241.01      -79068.73       339.11153     -1672.63        24.430968      24.430968      24.430968      14582.166    
       250   294.73417     -12270.671     -14839.816      48963.164     -37246.419     -56236.194     -79068.461      337.04454     -1671.9849      24.430968      24.430968      24.430968      14582.166    
       251   294.73417     -12270.671     -14839.287      48961.019     -37240.423     -56238.458     -79066.927      330.22546     -1668.5504      24.430968      24.430968      24.430968      14582.166    
       252   294.73417     -12270.671     -14834.301      48962.056     -37231.711     -56233.248     -79066.842      328.49199     -1667.9813      24.430968      24.430968      24.430968      14582.166    
       253   294.73417     -12270.671     -14827.379      48953.066     -37216.875     -56218.327     -79069.651      336.94746     -1671.9819      24.430968      24.430968      24.430968      14582.166    
       254   294.73417     -12270.671     -14839.909      48915.143     -37213.682     -56221.189     -79071.175      344.48838     -1674.5799      24.430968      24.430968      24.430968      14582.166    
       255   294.73417     -12270.671     -14840.81       48904.418     -37208.26      -56218.587     -79071.719      346.60491     -1675.479       24.430968      24.430968      24.430968      14582.166    
       256   294.73417     -12270.671     -14833.01       48909.6       -37198.296     -56210.334     -79071.732      345.46848     -1675.4491      24.430968      24.430968      24.430968      14582.166    
       257   294.73417     -12270.671     -14828.519      48914.657     -37193.693     -56206.52      -79071.558      344.00473     -1675.0154      24.430968      24.430968      24.430968      14582.166    
       258   294.73417     -12270.671     -14821.355      48922.438     -37185.628     -56200.875     -79071.019      340.53298     -1673.7395      24.430968      24.430968      24.430968      14582.166    
       259   294.73417     -12270.672     -14828.272      48910.547     -37186.548     -56208.816     -79069.537      335.38009     -1670.6082      24.430968      24.430968      24.430968      14582.166    
       260   294.73417     -12270.672     -14823.541      48907.295     -37174.301     -56203.618     -79068.907      331.01348     -1668.4759      24.430968      24.430968      24.430968      14582.166    
       261   294.73417     -12270.672     -14819.056      48909.309     -37168.609     -56197.869     -79069.469      332.07345     -1669.1602      24.430968      24.430968      24.430968      14582.166    
       262   294.73417     -12270.672     -14813.312      48909.4       -37160.637     -56188.698     -79070.891      335.95906     -1671.153       24.430968      24.430968      24.430968      14582.166    
       263   294.73417     -12270.672     -14825.052      48881.657     -37164.256     -56192.556     -79072.458      343.61441     -1673.7956      24.430968      24.430968      24.430968      14582.166    
       264   294.73417     -12270.672     -14824.128      48866.81      -37155.078     -56184.117     -79074.198      349.66958     -1676.4832      24.430968      24.430968      24.430968      14582.166    
       265   294.73417     -12270.672     -14818.751      48871.547     -37149.023     -56178.777     -79074.213      348.69064     -1676.3097      24.430968      24.430968      24.430968      14582.166    
       266   294.73417     -12270.672     -14811.954      48878.867     -37141.576     -56173.153     -79073.811      345.75093     -1675.2512      24.430968      24.430968      24.430968      14582.166    
       267   294.73417     -12270.672     -14817.857      48867.928     -37141.34      -56180.159     -79072.003      339.17885     -1671.3964      24.430968      24.430968      24.430968      14582.166    
       268   294.73417     -12270.672     -14810.831      48868.05      -37128.548     -56171.995     -79071.779      335.98235     -1669.9275      24.430968      24.430968      24.430968      14582.166    
       269   294.73417     -12270.672     -14804.092      48867.697     -37118.794     -56161.178     -79073.456      340.22419     -1672.0256      24.430968      24.430968      24.430968      14582.166    
       270   294.73417     -12270.672     -14818.288      48836.189     -37124.477     -56166.575     -79075.218      348.6214      -1674.6754      24.430968      24.430968      24.430968      14582.166    
       271   294.73417     -12270.673     -14819.22       48823.417     -37119.477     -56161.601     -79076.592      353.37098     -1676.5905      24.430968      24.430968      24.430968      14582.166    
       272   294.73417     -12270.673     -14812.85       48828.798     -37112.395     -56154.954     -79076.726      352.63287     -1676.6056      24.430968      24.430968      24.430968      14582.166    
       273   294.73417     -12270.673     -14808.16       48833.69      -37107.417     -56150.752     -79076.575      351.11907     -1676.1441      24.430968      24.430968      24.430968      14582.166    
       274   294.73417     -12270.673     -14797.292      48842.165     -37092.554     -56141.486     -79075.208      343.3837      -1672.8183      24.430968      24.430968      24.430968      14582.166    
       275   294.73417     -12270.673     -14815.628      48805.755     -37098.21      -56154.43      -79074.175      341.17499     -1669.8305      24.430968      24.430968      24.430968      14582.166    
       276   294.73417     -12270.673     -14817.522      48783.132     -37086.947     -56148.753     -79074.828      341.5986      -1668.8745      24.430968      24.430968      24.430968      14582.166    
       277   294.73417     -12270.673     -14807.918      48788.08      -37075.105     -56136.728     -79075.887      343.14816     -1669.9115      24.430968      24.430968      24.430968      14582.166    
       278   294.73417     -12270.673     -14802.202      48791.747     -37068.727     -56129.626     -79076.653      344.64263     -1670.8442      24.430968      24.430968      24.430968      14582.166    
       279   294.73417     -12270.674     -14794.5        48793.203     -37058.679     -56118.023     -79078.294      348.66322     -1672.9433      24.430968      24.430968      24.430968      14582.166    
       280   294.73417     -12270.674     -14815.482      48750.566     -37069.544     -56127.469     -79079.994      358.21032     -1675.9016      24.430968      24.430968      24.430968      14582.166    
       281   294.73417     -12270.674     -14816.8        48734.233     -37063.738     -56120.896     -79081.6        363.64164     -1678.0305      24.430968      24.430968      24.430968      14582.166    
       282   294.73417     -12270.674     -14806.973      48743.242     -37053.284     -56110.878     -79081.891      362.53574     -1677.9124      24.430968      24.430968      24.430968      14582.166    
       283   294.73417     -12270.674     -14800.358      48750.251     -37046.419     -56104.905     -79081.808      360.64749     -1677.2512      24.430968      24.430968      24.430968      14582.166    
       284   294.73417     -12270.674     -14788.1        48760.228     -37029.932     -56094.596     -79080.319      351.02506     -1672.5567      24.430968      24.430968      24.430968      14582.166    
       285   294.73417     -12270.674     -14810.279      48720.441     -37041.009     -56110.27      -79079.592      350.21834     -1669.9644      24.430968      24.430968      24.430968      14582.166    
       286   294.73417     -12270.675     -14805.725      48694.568     -37019.653     -56092.091     -79082.12       354.22792     -1670.24        24.430968      24.430968      24.430968      14582.166    
       287   294.73417     -12270.675     -14798.804      48699.872     -37012.283     -56084         -79082.821      355.31479     -1671.0366      24.430968      24.430968      24.430968      14582.166    
       288   294.73417     -12270.675     -14790.12       48704.133     -37002.119     -56072.374     -79084.051      357.90015     -1672.596       24.430968      24.430968      24.430968      14582.166    
       289   294.73417     -12270.675     -14816.526      48646.255     -37015.376     -56080.458     -79086.301      371.15138     -1677.4789      24.430968      24.430968      24.430968      14582.166    
       290   294.73417     -12270.676     -14810.033      48634.037     -37000.72      -56063.418     -79088.426      376.8318      -1680.0512      24.430968      24.430968      24.430968      14582.166    
       291   294.73417     -12270.676     -14799.365      48645.878     -36989.941     -56054.031     -79088.462      374.09215     -1678.9415      24.430968      24.430968      24.430968      14582.166    
       292   294.73417     -12270.676     -14782.928      48663.529     -36970.696     -56041.616     -79087.286      363.26521     -1673.2258      24.430968      24.430968      24.430968      14582.166    
       293   294.73417     -12270.676     -14820.964      48609.179     -36997.966     -56074.106     -79085.578      360.76267     -1668.8384      24.430968      24.430968      24.430968      14582.166    
       294   294.73417     -12270.676     -14826.383      48595.156     -36998.259     -56076.046     -79085.755      360.44465     -1667.7046      24.430968      24.430968      24.430968      14582.166    
       295   294.73417     -12270.676     -14809.189      48608.602     -36979.608     -56056.561     -79087.211      361.62051     -1668.7931      24.430968      24.430968      24.430968      14582.166    
       296   294.73417     -12270.676     -14798.416      48617.606     -36968.5       -56044.353     -79088.199      362.9584      -1669.9019      24.430968      24.430968      24.430968      14582.166    
       297   294.73417     -12270.677     -14789.702      48622.738     -36958.801     -56033.044     -79089.319      365.228       -1671.3812      24.430968      24.430968      24.430968      14582.166    
       298   294.73417     -12270.677     -14802.319      48575.961     -36959.361     -56023.556     -79092.938      381.82877     -1678.9612      24.430968      24.430968      24.430968      14582.166    
       299   294.73417     -12270.677     -14791.802      48571.904     -36942.248     -56005.062     -79094.386      383.55163     -1679.7751      24.430968      24.430968      24.430968      14582.166    
       300   294.73417     -12270.678     -14801.655      48556.471     -36944.824     -56016.611     -79091.817      371.59529     -1671.4909      24.430968      24.430968      24.430968      14582.166    
       301   294.73417     -12270.678     -14793.801      48560.42      -36934.337     -56007.486     -79092.336      369.96477     -1670.5826      24.430968      24.430968      24.430968      14582.166    
       302   294.73417     -12270.678     -14782.212      48559.14      -36918.18      -55987.597     -79095.49       377.24492     -1674.4157      24.430968      24.430968      24.430968      14582.166    
       303   294.73417     -12270.678     -14808.871      48511.046     -36935.56      -56002.101     -79096.402      384.36437     -1675.9043      24.430968      24.430968      24.430968      14582.166    
       304   294.73417     -12270.678     -14812.405      48491.011     -36931.86      -55996.367     -79097.75       388.02169     -1677.0202      24.430968      24.430968      24.430968      14582.166    
       305   294.73417     -12270.679     -14800.473      48502.021     -36919.392     -55984.05      -79098.244      386.75017     -1676.9062      24.430968      24.430968      24.430968      14582.166    
       306   294.73417     -12270.679     -14793.42       48509.209     -36912.118     -55977.352     -79098.327      385.16457     -1676.3682      24.430968      24.430968      24.430968      14582.166    
       307   294.73417     -12270.679     -14776.848      48521.193     -36890.849     -55960.888     -79097.27       374.95918     -1671.0785      24.430968      24.430968      24.430968      14582.166    
       308   294.73417     -12270.679     -14799.326      48483.72      -36905.218     -55976.479     -79096.517      374.41804     -1668.7978      24.430968      24.430968      24.430968      14582.166    
       309   294.73417     -12270.68      -14790.6        48469.947     -36886.793     -55954.955     -79099.935      380.8666      -1671.5691      24.430968      24.430968      24.430968      14582.166    
       310   294.73417     -12270.68      -14765.316      48474.262     -36854.913     -55915.298     -79104.843      391.52142     -1677.7291      24.430968      24.430968      24.430968      14582.166    
       311   294.73417     -12270.68      -14801.694      48419.086     -36883.589     -55940.578     -79104.536      396.24706     -1678.9958      24.430968      24.430968      24.430968      14582.166    
       312   294.73417     -12270.681     -14789.06       48418.817     -36863.971     -55922.027     -79105.224      392.72525     -1676.9833      24.430968      24.430968      24.430968      14582.166    
       313   294.73417     -12270.681     -14749.377      48448.391     -36815.283     -55881.241     -79106.328      382.86605     -1670.7531      24.430968      24.430968      24.430968      14582.166    
       314   294.73417     -12270.682     -14782.259      48400.993     -36840.222     -55907.548     -79105.655      382.27033     -1669.4965      24.430968      24.430968      24.430968      14582.166    
       315   294.73417     -12270.682     -14777.421      48383.506     -36829.392     -55886.376     -79110.203      395.10887     -1677.3847      24.430968      24.430968      24.430968      14582.166    
       316   294.73417     -12270.683     -14781.993      48339.404     -36819.745     -55865.638     -79107.803      396.01555     -1677.5097      24.430968      24.430968      24.430968      14582.166    
       317   294.73417     -12270.683     -14779.151      48330.365     -36811.775     -55856.042     -79108.759      397.2841      -1679.0676      24.430968      24.430968      24.430968      14582.166    
       318   294.73417     -12270.684     -14775.698      48333.435     -36807.517     -55853.013     -79110.081      397.67874     -1679.7774      24.430968      24.430968      24.430968      14582.166    
       319   294.73417     -12270.684     -14772.189      48336.093     -36802.871     -55849.79      -79111.563      397.9754      -1680.3492      24.430968      24.430968      24.430968      14582.166    
       320   294.73417     -12270.684     -14743.526      48347.639     -36757.317     -55820.899     -79126.987      399.95106     -1683.6299      24.430968      24.430968      24.430968      14582.166    
       321   294.73417     -12270.684     -14746.881      48329.757     -36751.278     -55819.121     -79128.194      400.37845     -1682.0967      24.430968      24.430968      24.430968      14582.166    
       322   294.73417     -12270.685     -14757.032      48313.844     -36771.383     -55813.556     -79106.512      399.21951     -1679.993       24.430968      24.430968      24.430968      14582.166    
       323   294.73417     -12270.685     -14750.357      48315.46      -36764.945     -55801.588     -79115.166      398.26042     -1688.1369      24.430968      24.430968      24.430968      14582.166    
       324   294.73417     -12270.685     -14787.087      48261.56      -36785.936     -55836.886     -79124.364      403.4539      -1691.8755      24.430968      24.430968      24.430968      14582.166    
       325   294.73417     -12270.685     -14752.518      48287.833     -36742.477     -55802.908     -79130.073      404.26128     -1691.1086      24.430968      24.430968      24.430968      14582.166    
       326   294.73417     -12270.685     -14735.437      48306.305     -36727.793     -55784.823     -79125.523      402.60698     -1689.2411      24.430968      24.430968      24.430968      14582.166    
       327   294.73417     -12270.685     -14763.758      48275.288     -36760.648     -55805.914     -79113.927      399.79839     -1688.8279      24.430968      24.430968      24.430968      14582.166    
       328   294.73417     -12270.686     -14734.853      48303.303     -36733.824     -55774.04      -79115.696      396.7581      -1690.5164      24.430968      24.430968      24.430968      14582.166    
       329   294.73417     -12270.686     -14730.106      48300.215     -36718.597     -55771.935     -79131.39       401.56282     -1696.6867      24.430968      24.430968      24.430968      14582.166    
       330   294.73417     -12270.686     -14743.184      48274.281     -36721.478     -55782.355     -79127.478      403.64821     -1695.1144      24.430968      24.430968      24.430968      14582.166    
       331   294.73417     -12270.686     -14719.582      48286.708     -36689.318     -55756.137     -79121.601      403.91077     -1692.3742      24.430968      24.430968      24.430968      14582.166    
       332   294.73417     -12270.686     -14713.925      48294.379     -36685.683     -55750.471     -79124.196      402.99139     -1694.3843      24.430968      24.430968      24.430968      14582.166    
       333   294.73417     -12270.686     -14726.183      48287.193     -36706.277     -55759.464     -79130.284      398.6585      -1701.923       24.430968      24.430968      24.430968      14582.166    
       334   294.73417     -12270.687     -14687.537      48317.193     -36666.054     -55713.751     -79119.105      395.09377     -1698.6127      24.430968      24.430968      24.430968      14582.166    
       335   294.73417     -12270.687     -14702.736      48291.39      -36674.233     -55725.367     -79113.453      396.52711     -1699.3108      24.430968      24.430968      24.430968      14582.166    
       336   294.73417     -12270.687     -14708.281      48284.345     -36674.925     -55734.262     -79128.843      397.6943      -1706.8744      24.430968      24.430968      24.430968      14582.166    
       337   294.73417     -12270.687     -14695.924      48292.193     -36657.403     -55722.562     -79128.81       398.16337     -1707.6109      24.430968      24.430968      24.430968      14582.166    
       338   294.73417     -12270.687     -14681.562      48299.241     -36630.152     -55713.775     -79130.039      399.31056     -1706.2739      24.430968      24.430968      24.430968      14582.166    
       339   294.73417     -12270.687     -14671.449      48299.874     -36609.42      -55704.802     -79130.943      398.758       -1708.1621      24.430968      24.430968      24.430968      14582.166    
       340   294.73417     -12270.687     -14669.831      48300.563     -36609.606     -55700.449     -79131.61       397.302       -1710.7786      24.430968      24.430968      24.430968      14582.166    
       341   294.73417     -12270.688     -14674.64       48298.098     -36623.284     -55698.734     -79133.627      393.68199     -1717.1965      24.430968      24.430968      24.430968      14582.166    
       342   294.73417     -12270.688     -14696.137      48276.311     -36645.636     -55719.086     -79127.684      394.69083     -1716.1342      24.430968      24.430968      24.430968      14582.166    
       343   294.73417     -12270.688     -14696.286      48267.486     -36642.142     -55714.203     -79114.142      393.59267     -1715.1871      24.430968      24.430968      24.430968      14582.166    
       344   294.73417     -12270.688     -14680.903      48279.253     -36623.757     -55698.206     -79116.621      392.10495     -1718.251       24.430968      24.430968      24.430968      14582.166    
       345   294.73417     -12270.688     -14667.339      48292.174     -36605.476     -55688.715     -79130.072      391.28869     -1724.592       24.430968      24.430968      24.430968      14582.166    
       346   294.73417     -12270.688     -14671.585      48287.644     -36603.159     -55699.238     -79132.476      392.32895     -1723.0514      24.430968      24.430968      24.430968      14582.166    
       347   294.73417     -12270.688     -14653.226      48303.337     -36577.741     -55685.275     -79134.01       391.39339     -1722.0374      24.430968      24.430968      24.430968      14582.166    
       348   294.73417     -12270.688     -14647.356      48308.427     -36572.403     -55678.091     -79134.034      390.45118     -1722.9627      24.430968      24.430968      24.430968      14582.166    
       349   294.73417     -12270.688     -14653.869      48300.852     -36584.373     -55678.087     -79132.705      388.38537     -1727.3377      24.430968      24.430968      24.430968      14582.166    
       350   294.73417     -12270.688     -14680.541      48272.343     -36610.001     -55703.966     -79126.512      390.5211      -1727.8667      24.430968      24.430968      24.430968      14582.166    
       351   294.73417     -12270.688     -14683.251      48262.237     -36606.9       -55705.091     -79117.206      390.79388     -1730.5243      24.430968      24.430968      24.430968      14582.166    
       352   294.73417     -12270.688     -14663.001      48279.537     -36583.704     -55684.837     -79118.916      388.49238     -1732.6467      24.430968      24.430968      24.430968      14582.166    
       353   294.73417     -12270.688     -14648.262      48294.076     -36566.867     -55671.994     -79125.439      386.32077     -1734.1743      24.430968      24.430968      24.430968      14582.166    
       354   294.73417     -12270.688     -14646.457      48296.535     -36559.089     -55676.815     -79134.306      385.36846     -1734.8501      24.430968      24.430968      24.430968      14582.166    
       355   294.73417     -12270.688     -14632.956      48309.252     -36543.782     -55664.337     -79134.714      384.37166     -1734.7293      24.430968      24.430968      24.430968      14582.166    
       356   294.73417     -12270.689     -14635.041      48304.481     -36546.255     -55663.348     -79124.896      384.2368      -1733.7743      24.430968      24.430968      24.430968      14582.166    
       357   294.73417     -12270.689     -14650.609      48277.624     -36555.251     -55674.198     -79124.944      379.1896      -1744.6414      24.430968      24.430968      24.430968      14582.166    
[...]
       827   294.73417     -12273.412     -6459.4606      31903.526     -18936.841     -32345.067     -73692.037      239.63465     -1860.6807      24.509004      24.393044      24.361852      14564.714    
       828   294.73417     -12273.444     -7348.1899      31044.33      -19751.281     -33337.619     -73063.119      272.34333     -1765.7177      24.509004      24.393044      24.361852      14564.714    
       829   294.73417     -12273.47      -8198.1349      30932.354     -20845.042     -34681.717     -73255.16       188.58022     -1768.7394      24.509004      24.393044      24.361852      14564.714    
       830   294.73417     -12273.5       -8526.5892      32398.444     -22167.647     -35810.565     -72956.491      171.19        -1743.9114      24.509004      24.393044      24.361852      14564.714    
       831   294.73417     -12273.516     -7975.3814      33782.789     -22017.889     -35691.044     -72633.68       163.54468     -1733.9613      24.509004      24.393044      24.361852      14564.714    
       832   294.73417     -12273.53      -7626.8624      34664.984     -21735.413     -35810.158     -72572.521      128.3551      -1727.5271      24.509004      24.393044      24.361852      14564.714    
       833   294.73417     -12273.541     -7683.8943      34992.724     -21812.153     -36232.254     -72962.008      106.63253     -1734.8351      24.509004      24.393044      24.361852      14564.714    
       834   294.73417     -12273.548     -7400.3628      35748.842     -21765.582     -36184.348     -73152.031      164.52194     -1717.5002      24.509004      24.393044      24.361852      14564.714    
       835   294.73417     -12273.558     -7568.3776      36564.114     -22653.965     -36615.282     -73002.99       201.55392     -1736.2627      24.509004      24.393044      24.361852      14564.714    
       836   294.73417     -12273.565     -7545.5624      37295.16      -23056.64      -36875.207     -72984.873      244.54631     -1692.8693      24.509004      24.393044      24.361852      14564.714    
       837   294.73417     -12273.573     -7372.8018      37844.016     -22986.259     -36976.163     -73060.798      275.28062     -1671.7102      24.509004      24.393044      24.361852      14564.714    
       838   294.73417     -12273.581     -7384.3919      37904.815     -22923.777     -37134.213     -73167.359      246.66888     -1723.947       24.509004      24.393044      24.361852      14564.714    
       839   294.73417     -12273.587     -7190.3454      38218.156     -22862.979     -36926.213     -73247.179      214.75745     -1718.7271      24.509004      24.393044      24.361852      14564.714    
       840   294.73417     -12273.594     -7580.3968      38156.658     -23566.872     -37330.977     -73288.887      206.8242      -1718.9221      24.509004      24.393044      24.361852      14564.714    
       841   294.73417     -12273.602     -7908.6614      38414.141     -24246.613     -37893.513     -73265.757      172.62313     -1733.5706      24.509004      24.393044      24.361852      14564.714    
       842   294.73417     -12273.609     -8300.5292      38442.915     -24754.039     -38590.463     -73223.991      170.17923     -1749.2463      24.509004      24.393044      24.361852      14564.714    
       843   294.73417     -12273.618     -8424.7808      38778.573     -25060.379     -38992.536     -73274.928      87.841031     -1695.8767      24.509004      24.393044      24.361852      14564.714    
       844   294.73417     -12273.627     -8401.546       39254.663     -25458.081     -39001.22      -73411.801      38.398813     -1636.7429      24.509004      24.393044      24.361852      14564.714    
       845   294.73417     -12273.635     -8869.9881      39170.329     -26297.655     -39482.639     -73456.332      24.734601     -1559.8473      24.509004      24.393044      24.361852      14564.714    
       846   294.73417     -12273.643     -8868.5263      39676.771     -26592.562     -39689.787     -73487.409      52.624596     -1522.5324      24.509004      24.393044      24.361852      14564.714    
       847   294.73417     -12273.651     -9693.5853      39360.314     -27622.163     -40818.907     -73505.721      57.056505     -1426.5751      24.509004      24.393044      24.361852      14564.714    
       848   294.73417     -12273.657     -9492.2509      39982.704     -27703.357     -40756.099     -73593.553      82.885105     -1362.6741      24.509004      24.393044      24.361852      14564.714    
       849   294.73417     -12273.664     -9723.9566      40106.547     -28387.819     -40890.598     -73524.89       39.626756     -1289.3959      24.509004      24.393044      24.361852      14564.714    
       850   294.73417     -12273.668     -10129.694      39861.204     -29027.745     -41222.541     -73520.689      25.290793     -1265.6915      24.509004      24.393044      24.361852      14564.714    
       851   294.73417     -12273.673     -10146.333      39890.345     -29157.714     -41171.631     -73601.265     -4.71462       -1229.4231      24.509004      24.393044      24.361852      14564.714    
       852   294.73417     -12273.678     -10437.777      39621.599     -29543.443     -41391.488     -73657.544      14.986122     -1239.2003      24.509004      24.393044      24.361852      14564.714    
       853   294.73417     -12273.68      -10692.789      39434.782     -29955.813     -41557.335     -73647.505      4.005995      -1245.0135      24.509004      24.393044      24.361852      14564.714    
       854   294.73417     -12273.684     -10650.727      39562.495     -30094.76      -41419.915     -73592.649     -4.9762184     -1242.779       24.509004      24.393044      24.361852      14564.714    
       855   294.73417     -12273.686     -11050.845      39259.961     -30601.18      -41811.315     -73589.269     -24.234551     -1228.2207      24.509004      24.393044      24.361852      14564.714    
       856   294.73417     -12273.688     -10952.546      39361.289     -30510.704     -41708.222     -73601.743     -39.771347     -1218.6419      24.509004      24.393044      24.361852      14564.714    
       857   294.73417     -12273.691     -11087.49       39181.976     -30610.399     -41834.049     -73551.85      -45.19013      -1226.3473      24.509004      24.393044      24.361852      14564.714    
       858   294.73417     -12273.693     -11375.642      38925.106     -30917.33      -42134.703     -73528.104     -34.611697     -1223.291       24.509004      24.393044      24.361852      14564.714    
       859   294.73417     -12273.695     -11290.596      39058.822     -30865.16      -42065.45      -73544.537     -20.274001     -1217.1353      24.509004      24.393044      24.361852      14564.714    
       860   294.73417     -12273.697     -11488.434      38864.306     -31115.267     -42214.34      -73525.447      40.654547     -1175.8369      24.509004      24.393044      24.361852      14564.714    
       861   294.73417     -12273.698     -11531.575      38745.561     -31148.961     -42191.326     -73489.759      44.08635      -1155.485       24.509004      24.393044      24.361852      14564.714    
       862   294.73417     -12273.7       -11516.426      38643.851     -31086.301     -42106.829     -73464.407      52.247768     -1131.5552      24.509004      24.393044      24.361852      14564.714    
       863   294.73417     -12273.702     -11665.463      38457.609     -31246.061     -42207.936     -73479.685      68.912599     -1100.8743      24.509004      24.393044      24.361852      14564.714    
       864   294.73417     -12273.703     -11682.947      38421.751     -31288.439     -42182.152     -73490.997      95.191767     -1070.3624      24.509004      24.393044      24.361852      14564.714    
       865   294.73417     -12273.705     -11833.857      38186.069     -31471.509     -42216.13      -73453.158      127.8948      -1043.2875      24.509004      24.393044      24.361852      14564.714    
       866   294.73417     -12273.706     -11780.833      38142.563     -31414.148     -42070.914     -73449.066      129.05479     -1042.4836      24.509004      24.393044      24.361852      14564.714    
Loop time of 1.6718 on 1 procs for 50 steps with 1728 atoms

100.0% CPU use with 1 MPI tasks x 1 OpenMP threads

Minimization stats:
  Stopping criterion = max force evaluations
  Energy initial, next-to-last, final = 
     -12272.5624350232  -12273.7048635782  -12273.7062535855
  Force two-norm initial, final = 6.7084846 0.60857738
  Force max component initial, final = 0.2586104 0.082712589
  Final line search alpha, max atom move = 0.094905806 0.007849905
  Iterations, force evaluations = 50 100

MPI task timing breakdown:
Section |  min time  |  avg time  |  max time  |%varavg| %total
---------------------------------------------------------------
Pair    | 1.663      | 1.663      | 1.663      |   0.0 | 99.47
Neigh   | 0          | 0          | 0          |   0.0 |  0.00
Comm    | 0.0023905  | 0.0023905  | 0.0023905  |   0.0 |  0.14
Output  | 0.002064   | 0.002064   | 0.002064   |   0.0 |  0.12
Modify  | 0          | 0          | 0          |   0.0 |  0.00
Other   |            | 0.00433    |            |       |  0.26

Nlocal:           1728 ave        1728 max        1728 min
Histogram: 1 0 0 0 0 0 0 0 0 0
Nghost:           5275 ave        5275 max        5275 min
Histogram: 1 0 0 0 0 0 0 0 0 0
Neighs:              0 ave           0 max           0 min
Histogram: 1 0 0 0 0 0 0 0 0 0
FullNghs:       156588 ave      156588 max      156588 min
Histogram: 1 0 0 0 0 0 0 0 0 0

Total # of neighbors = 156588
Ave neighs/atom = 90.618056
Neighbor list builds = 0
Dangerous builds = 0

# Obtain new stress tensor

variable tmp equal pe
variable e1 equal ${tmp}
variable e1 equal -12273.7062535855
variable tmp equal press
variable p1 equal ${tmp}
variable p1 equal -11780.8331487484
variable tmp equal pxx
variable pxx1 equal ${tmp}
variable pxx1 equal 38142.5628719394
variable tmp equal pyy
variable pyy1 equal ${tmp}
variable pyy1 equal -31414.1480190163
variable tmp equal pzz
variable pzz1 equal ${tmp}
variable pzz1 equal -42070.9142991682
variable tmp equal pxy
variable pxy1 equal ${tmp}
variable pxy1 equal -73449.0657802321
variable tmp equal pxz
variable pxz1 equal ${tmp}
variable pxz1 equal 129.0547892351
variable tmp equal pyz
variable pyz1 equal ${tmp}
variable pyz1 equal -1042.48361955449

# Compute elastic constant from pressure tensor

variable C1pos equal ${d1}
variable C1pos equal -3125250.91445325
variable C2pos equal ${d2}
variable C2pos equal 3788748.57165181
variable C3pos equal ${d3}
variable C3pos equal 4838299.74240639
variable C4pos equal ${d4}
variable C4pos equal -88958.982542248
variable C5pos equal ${d5}
variable C5pos equal 12774.5623301193
variable C6pos equal ${d6}
variable C6pos equal -255173.036011831

# Combine positive and negative

variable C1${dir} equal 0.5*(${C1neg}+${C1pos})
variable C16 equal 0.5*(${C1neg}+${C1pos})
variable C16 equal 0.5*(3124989.35119884+${C1pos})
variable C16 equal 0.5*(3124989.35119884+-3125250.91445325)
variable C2${dir} equal 0.5*(${C2neg}+${C2pos})
variable C26 equal 0.5*(${C2neg}+${C2pos})
variable C26 equal 0.5*(-3788935.814946+${C2pos})
variable C26 equal 0.5*(-3788935.814946+3788748.57165181)
variable C3${dir} equal 0.5*(${C3neg}+${C3pos})
variable C36 equal 0.5*(${C3neg}+${C3pos})
variable C36 equal 0.5*(-4838327.04218858+${C3pos})
variable C36 equal 0.5*(-4838327.04218858+4838299.74240639)
variable C4${dir} equal 0.5*(${C4neg}+${C4pos})
variable C46 equal 0.5*(${C4neg}+${C4pos})
variable C46 equal 0.5*(88971.587347644+${C4pos})
variable C46 equal 0.5*(88971.587347644+-88958.982542248)
variable C5${dir} equal 0.5*(${C5neg}+${C5pos})
variable C56 equal 0.5*(${C5neg}+${C5pos})
variable C56 equal 0.5*(-12773.1509608464+${C5pos})
variable C56 equal 0.5*(-12773.1509608464+12774.5623301193)
variable C6${dir} equal 0.5*(${C6neg}+${C6pos})
variable C66 equal 0.5*(${C6neg}+${C6pos})
variable C66 equal 0.5*(255398.486384821+${C6pos})
variable C66 equal 0.5*(255398.486384821+-255173.036011831)

# Delete dir to make sure it is not reused

variable dir delete

# Output final values

variable C11all equal ${C11}
variable C11all equal 586.061669665156
variable C22all equal ${C22}
variable C22all equal -36.6646331951488
variable C33all equal ${C33}
variable C33all equal 414.298532019835

variable C12all equal 0.5*(${C12}+${C21})
variable C12all equal 0.5*(79.6293695950881+${C21})
variable C12all equal 0.5*(79.6293695950881+-13.2436851600651)
variable C13all equal 0.5*(${C13}+${C31})
variable C13all equal 0.5*(15.2996723300312+${C31})
variable C13all equal 0.5*(15.2996723300312+-56.8608835451305)
variable C23all equal 0.5*(${C23}+${C32})
variable C23all equal 0.5*(251.701268469915+${C32})
variable C23all equal 0.5*(251.701268469915+145.871286415029)

variable C44all equal ${C44}
variable C44all equal 45.7552953885024
variable C55all equal ${C55}
variable C55all equal 70.1934961029501
variable C66all equal ${C66}
variable C66all equal 112.725186495009

variable C14all equal 0.5*(${C14}+${C41})
variable C14all equal 0.5*(-4.51613869494759+${C41})
variable C14all equal 0.5*(-4.51613869494759+53.5862515390036)
variable C15all equal 0.5*(${C15}+${C51})
variable C15all equal 0.5*(11.1744219351094+${C51})
variable C15all equal 0.5*(11.1744219351094+7.88056801545008)
variable C16all equal 0.5*(${C16}+${C61})
variable C16all equal 0.5*(-130.781627204968+${C61})
variable C16all equal 0.5*(-130.781627204968+-329.495328539502)

variable C24all equal 0.5*(${C24}+${C42})
variable C24all equal 0.5*(55.4016982649919+${C42})
variable C24all equal 0.5*(55.4016982649919+79.4876669389996)
variable C25all equal 0.5*(${C25}+${C52})
variable C25all equal 0.5*(59.0036718100309+${C52})
variable C25all equal 0.5*(59.0036718100309+27.5809542636007)
variable C26all equal 0.5*(${C26}+${C62})
variable C26all equal 0.5*(-93.6216470950749+${C62})
variable C26all equal 0.5*(-93.6216470950749+-216.964243694994)

variable C34all equal 0.5*(${C34}+${C43})
variable C34all equal 0.5*(41.4184981998987+${C43})
variable C34all equal 0.5*(41.4184981998987+67.4090524130006)
variable C35all equal 0.5*(${C35}+${C53})
variable C35all equal 0.5*(39.5712113450281+${C53})
variable C35all equal 0.5*(39.5712113450281+10.2926545381006)
variable C36all equal 0.5*(${C36}+${C63})
variable C36all equal 0.5*(-13.6498910952359+${C63})
variable C36all equal 0.5*(-13.6498910952359+-151.867159840505)

variable C45all equal 0.5*(${C45}+${C54})
variable C45all equal 0.5*(-17.442205737505+${C54})
variable C45all equal 0.5*(-17.442205737505+-15.7993001510004)
variable C46all equal 0.5*(${C46}+${C64})
variable C46all equal 0.5*(6.30240269799833+${C64})
variable C46all equal 0.5*(6.30240269799833+0.00472532499406952)
variable C56all equal 0.5*(${C56}+${C65})
variable C56all equal 0.5*(0.705684636450314+${C65})
variable C56all equal 0.5*(0.705684636450314+-0.527244245502516)

# Average moduli for cubic crystals

variable C11cubic equal (${C11all}+${C22all}+${C33all})/3.0
variable C11cubic equal (586.061669665156+${C22all}+${C33all})/3.0
variable C11cubic equal (586.061669665156+-36.6646331951488+${C33all})/3.0
variable C11cubic equal (586.061669665156+-36.6646331951488+414.298532019835)/3.0
variable C12cubic equal (${C12all}+${C13all}+${C23all})/3.0
variable C12cubic equal (33.1928422175115+${C13all}+${C23all})/3.0
variable C12cubic equal (33.1928422175115+-20.7806056075496+${C23all})/3.0
variable C12cubic equal (33.1928422175115+-20.7806056075496+198.786277442472)/3.0
variable C44cubic equal (${C44all}+${C55all}+${C66all})/3.0
variable C44cubic equal (45.7552953885024+${C55all}+${C66all})/3.0
variable C44cubic equal (45.7552953885024+70.1934961029501+${C66all})/3.0
variable C44cubic equal (45.7552953885024+70.1934961029501+112.725186495009)/3.0

variable bulkmodulus equal (${C11cubic}+2*${C12cubic})/3.0
variable bulkmodulus equal (321.231856163281+2*${C12cubic})/3.0
variable bulkmodulus equal (321.231856163281+2*70.3995046841446)/3.0
variable shearmodulus1 equal ${C44cubic}
variable shearmodulus1 equal 76.2246593288205
variable shearmodulus2 equal (${C11cubic}-${C12cubic})/2.0
variable shearmodulus2 equal (321.231856163281-${C12cubic})/2.0
variable shearmodulus2 equal (321.231856163281-70.3995046841446)/2.0
variable poissonratio equal 1.0/(1.0+${C11cubic}/${C12cubic})
variable poissonratio equal 1.0/(1.0+321.231856163281/${C12cubic})
variable poissonratio equal 1.0/(1.0+321.231856163281/70.3995046841446)

# For Stillinger-Weber silicon, the analytical results
# are known to be (E. R. Cowley, 1988):
#               C11 = 151.4 GPa
#               C12 = 76.4 GPa
#               C44 = 56.4 GPa

print "========================================="
=========================================
print "Components of the Elastic Constant Tensor"
Components of the Elastic Constant Tensor
print "========================================="
=========================================

print "Elastic Constant C11all = ${C11all} ${cunits}"
Elastic Constant C11all = 586.061669665156 GPa
print "Elastic Constant C22all = ${C22all} ${cunits}"
Elastic Constant C22all = -36.6646331951488 GPa
print "Elastic Constant C33all = ${C33all} ${cunits}"
Elastic Constant C33all = 414.298532019835 GPa

print "Elastic Constant C12all = ${C12all} ${cunits}"
Elastic Constant C12all = 33.1928422175115 GPa
print "Elastic Constant C13all = ${C13all} ${cunits}"
Elastic Constant C13all = -20.7806056075496 GPa
print "Elastic Constant C23all = ${C23all} ${cunits}"
Elastic Constant C23all = 198.786277442472 GPa

print "Elastic Constant C44all = ${C44all} ${cunits}"
Elastic Constant C44all = 45.7552953885024 GPa
print "Elastic Constant C55all = ${C55all} ${cunits}"
Elastic Constant C55all = 70.1934961029501 GPa
print "Elastic Constant C66all = ${C66all} ${cunits}"
Elastic Constant C66all = 112.725186495009 GPa

print "Elastic Constant C14all = ${C14all} ${cunits}"
Elastic Constant C14all = 24.535056422028 GPa
print "Elastic Constant C15all = ${C15all} ${cunits}"
Elastic Constant C15all = 9.52749497527974 GPa
print "Elastic Constant C16all = ${C16all} ${cunits}"
Elastic Constant C16all = -230.138477872235 GPa

print "Elastic Constant C24all = ${C24all} ${cunits}"
Elastic Constant C24all = 67.4446826019958 GPa
print "Elastic Constant C25all = ${C25all} ${cunits}"
Elastic Constant C25all = 43.2923130368158 GPa
print "Elastic Constant C26all = ${C26all} ${cunits}"
Elastic Constant C26all = -155.292945395034 GPa

print "Elastic Constant C34all = ${C34all} ${cunits}"
Elastic Constant C34all = 54.4137753064497 GPa
print "Elastic Constant C35all = ${C35all} ${cunits}"
Elastic Constant C35all = 24.9319329415643 GPa
print "Elastic Constant C36all = ${C36all} ${cunits}"
Elastic Constant C36all = -82.7585254678704 GPa

print "Elastic Constant C45all = ${C45all} ${cunits}"
Elastic Constant C45all = -16.6207529442527 GPa
print "Elastic Constant C46all = ${C46all} ${cunits}"
Elastic Constant C46all = 3.1535640114962 GPa
print "Elastic Constant C56all = ${C56all} ${cunits}"
Elastic Constant C56all = 0.089220195473899 GPa

print "========================================="
=========================================
print "Average properties for a cubic crystal"
Average properties for a cubic crystal
print "========================================="
=========================================

print "Bulk Modulus = ${bulkmodulus} ${cunits}"
Bulk Modulus = 154.010288510523 GPa
print "Shear Modulus 1 = ${shearmodulus1} ${cunits}"
Shear Modulus 1 = 76.2246593288205 GPa
print "Shear Modulus 2 = ${shearmodulus2} ${cunits}"
Shear Modulus 2 = 125.416175739568 GPa
print "Poisson Ratio = ${poissonratio}"
Poisson Ratio = 0.179759620199495
Total wall time: 0:00:47
