LAMMPS data file via write_data, version 24 Mar 2022, timestep = 200080

1728 atoms
2 atom types

0.43437442470969145 24.865342515290674 xlo xhi
0.43437442470969145 24.865342515290674 ylo yhi
0.43437442470969145 24.865342515290674 zlo zhi
0.0 0.0 0.0 xy xz yz

Masses

1 58.71
2 15.999

Atoms # atomic

28 1 1.3870002864496958 3.1965188728589675 2.44588353338404 0 0 0
109 2 3.2388814557100223 1.4863174039279594 0.9104939444777873 0 0 0
136 2 3.1148994083745656 2.9979126920627848 2.1987973015072333 0 0 0
163 2 1.8013924180183545 1.4847330654287292 2.3225241021637384 0 0 0
190 2 1.728425285495812 2.7963740195950573 0.791471628575887 0 0 0
55 1 3.4625345687094873 1.3268095404049673 2.6581402037424646 0 0 0
14 1 4.884526523492387 4.2955471361803355 3.6945577922354635 0 0 0
1 1 1.5270703466485642 1.0976100739349641 0.6521699310425969 0 0 0
58 1 3.6150641323724493 5.522655135741038 1.794661517897252 0 0 0
166 2 1.9850390758724459 5.456924341588879 1.2943325667621002 0 0 0
203 2 4.935146240597096 5.990434398014632 3.9071351954370654 0 0 0
2 1 0.7670550104651392 0.9636877641513687 4.589744280119733 0 0 0
83 1 2.549741841809 2.9972200579684305 4.6972911331674245 0 0 0
110 2 2.3954207646019947 1.3088653127223129 5.016397087945622 0 0 0
137 2 2.1396588466755118 2.7323950316175463 6.3978519755026735 0 0 0
164 2 0.865800426986443 1.1941666234192814 6.303853013029763 0 0 0
191 2 0.8559628942916169 2.6425680588992133 4.89113652624594 0 0 0
176 2 5.122419430298902 4.643552222988684 5.382744246573551 0 0 0
15 1 3.852687919665935 4.256934108801143 7.651685211891372 0 0 0
56 1 2.5226433979301217 1.0348431640412201 6.769828765479336 0 0 0
38 1 4.687023225985534 2.3640821546866437 6.5074142047221475 0 0 0
173 2 4.975609994084878 0.6204102213399869 6.292183769789608 0 0 0
200 2 4.924101672803841 2.006379971304236 4.826952982857228 0 0 0
59 1 2.672895612988429 5.190484395161937 5.921654500403464 0 0 0
113 2 2.597881321483525 5.520077880480556 4.203179719013981 0 0 0
41 1 4.607821476648415 6.302153560395454 5.626988797121284 0 0 0
204 2 3.9258007537736437 5.940704161294757 8.081919970788395 0 0 0
29 1 0.467741043852146 2.8386446761744706 6.595625302232683 0 0 0
167 2 1.0521867371235825 5.096052822937524 5.465272463679898 0 0 0
114 2 1.572093418584116 5.41994628168313 8.27269413744977 0 0 0
5 1 1.0013431267321984 4.92507015690132 3.76120412001264 0 0 0
10 1 5.61127841367274 0.5817338230512051 0.6309291805283651 0 0 0
123 2 5.523480694158268 4.764815709779117 7.957720449113782 0 0 0
37 1 5.671452600010497 2.745273474408993 2.437127500861677 0 0 0
175 2 6.0968749585058175 5.02387897836623 1.3278117916024241 0 0 0
118 2 7.305772553839513 0.9283663631939107 0.865096927305133 0 0 0
145 2 7.3324508183469055 2.457486725338114 2.1589633674723174 0 0 0
172 2 5.945174085254798 1.0233304721806646 2.362156193122476 0 0 0
199 2 5.848305627625909 2.300973897919479 0.7979386469194422 0 0 0
64 1 7.5889721054236245 0.7216641004583533 2.5680307779756126 0 0 0
23 1 8.893496408174562 3.715320890529971 3.826241411784453 0 0 0
46 1 9.84346342058674 2.076282022132597 2.6718453264931026 0 0 0
208 2 9.884151734865405 1.603603136916493 1.0340398292828792 0 0 0
122 2 6.558402917822243 4.824682769814392 4.015866314144651 0 0 0
67 1 7.774533231169043 4.9620081502688365 1.6841608015404705 0 0 0
212 2 8.916895439071197 5.4272108325571295 4.068946498993235 0 0 0
184 2 10.274018129479241 4.384435219038565 1.6207084690304214 0 0 0
119 2 6.4126442798472665 0.6701641591065415 4.904595139342138 0 0 0
92 1 6.5926377160118115 2.349857159153231 4.600735929833033 0 0 0
146 2 6.3475082006781465 2.1061966990389163 6.268467790337821 0 0 0
24 1 7.895049582408657 3.675657353060121 7.713176182113759 0 0 0
68 1 6.824095449892552 4.667052150170866 5.731163744433171 0 0 0
47 1 8.779133920707928 1.7317229498034905 6.680542649166434 0 0 0
209 2 8.97058259649323 1.414418718823183 4.996418025261434 0 0 0
149 2 6.297169070225959 6.288459388355763 5.361338035852227 0 0 0
185 2 9.269262890290932 4.010632407349721 5.515790865733795 0 0 0
50 1 8.764151299238925 5.646926073197158 5.747347710687178 0 0 0
213 2 7.925000336515606 5.385762321587807 8.152038320395715 0 0 0
105 1 9.593257296085392 6.000919341470008 7.8147817166032505 0 0 0
132 2 9.556636255052604 4.268154391907876 7.957906887942061 0 0 0
49 1 9.75241398485029 6.060281098203509 1.7631566056391321 0 0 0
96 1 5.64470614680812 6.487216101511159 7.833303677031863 0 0 0
104 1 10.593158320966115 6.061321681757425 3.7864467143987834 0 0 0
131 2 10.538479940661063 4.261767549247816 3.9904284045938088 0 0 0
158 2 10.388856812499823 5.668009001935899 5.406464132694318 0 0 0
154 2 11.473816034413067 1.8624962924450097 2.234828920806489 0 0 0
244 1 13.683126462692975 3.151710875740588 2.4146240242317973 0 0 0
379 2 14.012760524072352 1.4581834983218835 2.274872020928464 0 0 0
406 2 13.982873284829072 2.7708474102972187 0.7680170270466324 0 0 0
217 1 13.802145053428887 1.0589235368097207 0.5776096191741551 0 0 0
76 1 11.941333190094888 4.420801324383973 1.8293497016884193 0 0 0
157 2 11.404887029663897 6.019628849184171 1.3830653701340938 0 0 0
382 2 14.182978475651879 5.545693800422652 1.3939632757300382 0 0 0
101 1 10.674182632016572 1.8366544673711895 4.682395611770908 0 0 0
155 2 10.454988716224959 1.5203648349289753 6.344919596365996 0 0 0
77 1 10.998005793162596 4.051140662314999 5.692159969616294 0 0 0
245 1 12.581368875417226 2.8682523786670666 6.56146974678683 0 0 0
218 1 13.00973859287562 1.0016468458824568 4.567934485810575 0 0 0
299 1 14.838643500622112 3.1400111513517177 4.902983058941565 0 0 0
326 2 14.662312182851828 1.4246112923048637 5.080678548609033 0 0 0
353 2 14.2515316121926 2.7546294085575513 6.532165474698537 0 0 0
380 2 13.025494022598469 1.2023321665518507 6.280203954683571 0 0 0
407 2 13.133644434323658 2.6932910996431882 4.89171829073084 0 0 0
272 1 14.693533996323596 1.0459848495712678 6.794730578589744 0 0 0
221 1 13.230504440440903 4.942288205153032 3.710768398496809 0 0 0
383 2 13.278556393194794 5.173431234757505 5.415717420425813 0 0 0
275 1 14.91745837621563 5.2104847846849704 5.948512919163238 0 0 0
329 2 14.842590406723048 5.523711700368877 4.202127611049267 0 0 0
222 1 12.128848554760403 4.920994030093888 7.796626735022794 0 0 0
330 2 13.758315188846938 5.423063189824464 8.254005254878013 0 0 0
281 1 18.861271323178656 0.4872740149828436 6.624324213914347 0 0 0
325 2 15.501718206707547 1.4544555552360268 0.9304985379508199 0 0 0
352 2 15.356628330494415 2.9548075141819985 2.22877853862061 0 0 0
274 1 15.815761075662754 5.468109426535218 1.8223554273070706 0 0 0
271 1 15.639526674231556 1.2807146686327258 2.7476746955057596 0 0 0
230 1 17.183138679882692 4.381273239358065 3.620461871597389 0 0 0
226 1 17.816567873264173 0.5467358472642153 0.591559166142626 0 0 0
253 1 17.854238144000195 2.678078718810444 2.3596043747274464 0 0 0
334 2 19.524940173923778 0.8615578393246063 0.7847259207974306 0 0 0
361 2 19.540311940801548 2.4273672202252614 2.0774814711291083 0 0 0
388 2 18.169122656380456 0.9632443881665166 2.2805546838496396 0 0 0
415 2 18.040810005208407 2.2181522351788896 0.7333937944917037 0 0 0
338 2 18.79388715697025 4.87598871676677 4.001573403835408 0 0 0
335 2 18.64839252899332 0.6944725664312348 4.877668740333845 0 0 0
389 2 17.20864280989232 0.6837622425160512 6.262194708616254 0 0 0
419 2 17.15022235009046 6.034392032735393 3.95500943882206 0 0 0
283 1 19.983787924353265 4.961630614568834 1.68294612000651 0 0 0
391 2 18.375964179191882 4.930913031853639 1.3072484923914534 0 0 0
280 1 19.85762841956255 0.7897657329230332 2.5544531288639565 0 0 0
231 1 16.035443827105645 4.297542146816214 7.594149370749089 0 0 0
392 2 17.33112646711702 4.650101767997004 5.3650974595660115 0 0 0
254 1 16.80275446749133 2.3931282657117983 6.428867766070361 0 0 0
308 1 18.872672856150885 2.384112149416747 4.550779143577481 0 0 0
362 2 18.522064392997635 2.173251665358775 6.241821168045754 0 0 0
416 2 17.190707313244516 2.081110487808063 4.764761715447328 0 0 0
284 1 19.046180114971673 4.652590650653564 5.695172658877598 0 0 0
257 1 16.868634906766157 6.269364837894358 5.627502148050698 0 0 0
365 2 18.523687035005583 6.271981875928909 5.404191015811195 0 0 0
420 2 16.153617550775383 5.979294787896199 8.106374869956056 0 0 0
339 2 17.69321527714713 4.705853177964857 7.924551959404073 0 0 0
312 1 17.85132168266435 6.520901895524281 7.88407564138145 0 0 0
239 1 21.09695443423288 3.739625733193417 3.7152776202838655 0 0 0
262 1 22.076641717725824 2.088307344090981 2.5295445116909128 0 0 0
370 2 23.700572075449383 1.812203529492848 2.106999262539978 0 0 0
424 2 22.076576857199846 1.5881004389514426 0.9315857949479507 0 0 0
347 2 22.738583582099295 4.291230838397556 3.9198938505117007 0 0 0
428 2 21.123021692531903 5.443220000663722 4.0635213292335965 0 0 0
292 1 24.179255200675676 4.379211906157881 1.760228069667475 0 0 0
400 2 22.496134088658607 4.406282811832403 1.5392933007330702 0 0 0
265 1 21.948052753008486 6.062774089357229 1.685355596890312 0 0 0
373 2 23.61697432379923 6.053419494978163 1.363700630516734 0 0 0
320 1 22.801355327861295 5.9832880126710375 3.7872504018466895 0 0 0
240 1 20.113660301102428 3.660916349787905 7.708138647997879 0 0 0
401 2 21.474934912169598 4.017328953909498 5.440158857396812 0 0 0
263 1 21.00924280014675 1.7284279286510857 6.6592300101128465 0 0 0
317 1 22.869735362945903 1.8441605457040013 4.592479656775157 0 0 0
371 2 22.68077590089573 1.5443996918514662 6.331717022004747 0 0 0
425 2 21.208286638572773 1.4989096315661987 4.967010824968836 0 0 0
293 1 23.192273320982125 3.993412319702355 5.674703142147859 0 0 0
266 1 20.95538500488073 5.656172742846258 5.748997306544599 0 0 0
429 2 20.138637900601257 5.3343871644694945 8.133825678362648 0 0 0
321 1 21.776939544316775 6.024146768955016 7.821739621128848 0 0 0
374 2 22.61166064935994 5.637185781607185 5.407395489050009 0 0 0
348 2 21.800745392120472 4.264232708167375 7.919017895408866 0 0 0
6 1 24.34703473858756 4.902384927728363 7.720174646909022 -1 0 0
443 1 4.579334077049606 12.636393852095013 5.55601027430794 0 0 0
298 1 15.642425602223376 3.148201391527362 0.49126097237973765 0 0 0
322 1 24.000531699864883 10.16401615339119 0.4775044725887199 0 0 0
194 2 0.9241462349359977 6.5732781677095655 4.0941941768060595 0 0 0
31 1 1.4541775903700909 7.083376378983243 1.5551484174777843 0 0 0
139 2 3.1179898854230723 7.1741839787924215 1.3282041608967847 0 0 0
17 1 4.923476192154679 8.485332078226627 4.5945043355842925 0 0 0
86 1 2.612180777060732 7.238023540302336 3.910051462530368 0 0 0
34 1 1.5181835063615983 11.369281815291577 2.4953295477277897 0 0 0
61 1 3.5569044376596994 9.459059405073143 2.7839885546282734 0 0 0
115 2 3.455391317300452 9.664617580530363 1.037210615879863 0 0 0
142 2 3.254637044706986 11.186554975910223 2.327067855492436 0 0 0
169 2 1.9162301304223734 9.696368531978285 2.3069952404948735 0 0 0
206 2 5.131500204895984 10.172263191430245 4.934892295565843 0 0 0
140 2 2.1117514009072416 6.830142323859147 5.663885111174154 0 0 0
87 1 1.5960890672552663 7.144262582077237 8.161821867543175 0 0 0
179 2 5.127547406052642 8.736065345525203 6.326847519938554 0 0 0
62 1 2.654363113233473 9.108695225881153 6.912978175346437 0 0 0
89 1 2.775042582238755 11.239540286303432 4.9130711223771 0 0 0
116 2 2.647463131495555 9.47616851904356 5.2153478321408695 0 0 0
143 2 2.3400000242431513 10.873491040895315 6.616708367765963 0 0 0
197 2 1.1483980033916659 10.767062416048908 5.011639323715456 0 0 0
44 1 4.838015498633265 10.414107779692584 6.661921907268093 0 0 0
170 2 0.9640677675856808 9.33373929840527 6.408829561727388 0 0 0
8 1 1.007300264622287 9.047742056633357 4.699021346823529 0 0 0
35 1 0.5815794192754222 11.053661090601222 6.650068630552058 0 0 0
7 1 1.8123119661390004 9.259729689064264 0.6199001266825037 0 0 0
196 2 1.9923282756263656 11.00519911641905 0.8157179061727817 0 0 0
88 1 3.6381452228968345 11.355328810809644 0.6146413608524379 0 0 0
148 2 7.3082328238082335 6.611226566229253 1.2256672605756254 0 0 0
95 1 6.614283679474458 6.5294080235971 3.660623383370271 0 0 0
40 1 5.5870846068546705 6.633920586164021 1.4476238017188585 0 0 0
25 1 9.804982356947992 8.098935822002318 0.8582813682501704 0 0 0
205 2 6.010619360287919 10.380037311658267 0.8487684080844856 0 0 0
43 1 5.73120234034891 10.721863466140569 2.5268719744209918 0 0 0
178 2 6.079404425629498 9.016825263129993 2.3493989153271957 0 0 0
26 1 8.966069404388225 7.9316918760787924 4.661916044369372 0 0 0
125 2 6.586784207365701 8.815756589784202 4.952006232960866 0 0 0
70 1 7.748987184680128 8.796997248114057 2.6219992666199645 0 0 0
151 2 7.4425841328100635 10.499416578433388 2.22408380017223 0 0 0
98 1 6.7969777657519295 10.497632473237106 4.696089302400684 0 0 0
52 1 9.916956671923419 10.143045565223884 2.6399297918221865 0 0 0
187 2 10.285820170398557 8.474354493742362 2.4658266258195374 0 0 0
214 2 10.084253914411736 9.83691339245168 0.9512366847837074 0 0 0
71 1 6.831130665425333 8.495254957355066 6.6613353843852865 0 0 0
497 1 6.525153285435417 12.53193534715841 7.6252456904100585 0 0 0
614 2 9.118963974229095 12.348910293077738 7.429743431621932 0 0 0
152 2 6.48991718938694 10.213241398897756 6.371471226076512 0 0 0
53 1 9.023190729613336 9.84698404756951 6.714091177146074 0 0 0
188 2 9.342214962713559 8.144596435746536 6.365310328205499 0 0 0
452 1 8.731645184367846 12.083167279738063 5.694015986602459 0 0 0
215 2 9.161875874980646 9.633774182173102 5.0379351279770725 0 0 0
124 2 7.429382841488719 8.993915744558636 0.8746612586080514 0 0 0
451 1 9.595182190619662 12.140818340133672 1.857339921819005 0 0 0
16 1 5.732843295269168 8.678756748519852 0.66359708866699 0 0 0
97 1 7.673850380863664 10.754142387899153 0.46767066074252284 0 0 0
559 2 11.333000925786802 12.29831545009892 1.9477079614792452 0 0 0
505 1 11.720634784224249 12.181208351125433 3.611740264410751 0 0 0
134 2 10.691999745424695 8.337981040271437 4.869489845277539 0 0 0
161 2 10.692696100128952 9.657863678830727 6.341636162281793 0 0 0
247 1 13.67138015534322 7.16535410583052 1.5554609374467807 0 0 0
355 2 15.383286321195175 7.156967986652341 1.376800754883043 0 0 0
560 2 10.46057800803872 12.245004719589268 5.914851913806025 0 0 0
79 1 11.993157327165187 8.355476324447686 2.608787645844993 0 0 0
133 2 11.563091268848638 8.456031022210057 0.9312234164579226 0 0 0
160 2 11.602959186631466 9.967240874997426 2.2316254590464775 0 0 0
250 1 13.742869045777445 11.32370636816996 2.429937760060516 0 0 0
385 2 14.211887297502221 9.659319863112017 2.3204388179778617 0 0 0
412 2 14.199167784352992 10.941143060218641 0.7820815243513746 0 0 0
248 1 12.679364299948574 6.824632105227537 5.696029819895647 0 0 0
410 2 13.162619531637173 6.603251293776167 4.047368770695007 0 0 0
80 1 11.045745501125799 7.985181773002071 6.495207230221294 0 0 0
302 1 14.841418256883065 7.240320121170071 3.952909182305752 0 0 0
356 2 14.4032671936385 6.834336667014217 5.629667162966633 0 0 0
506 1 10.742345131468733 11.952454960572977 7.553997273791874 0 0 0
107 1 10.809735306025722 10.011304639458873 4.647740143593446 0 0 0
224 1 13.200438718505268 9.109538567093082 4.6959362724289635 0 0 0
251 1 12.783638112899222 11.087861064191628 6.610034394647778 0 0 0
386 2 13.212261883404878 9.382749029026618 6.4093839144119285 0 0 0
278 1 14.863192852369473 9.14144189476079 6.89425927307819 0 0 0
305 1 14.971917886216493 11.204510588910718 4.929309045886242 0 0 0
332 2 14.789319996632033 9.498982074016938 5.185363737353714 0 0 0
359 2 14.514392033623924 10.885064849799676 6.603759562298188 0 0 0
413 2 13.308041013701818 10.802026761667396 5.005772536681183 0 0 0
303 1 13.84265420432741 7.1909225266891745 8.126933573784282 0 0 0
411 2 12.154856395124384 6.609058458404425 8.248051870767016 0 0 0
223 1 14.066754644603899 9.258997162468908 0.6857575290986336 0 0 0
106 1 11.73157603516303 10.120057053437598 0.5362750751923725 0 0 0
829 2 22.296178426767106 12.537210783162381 3.4974628239815564 0 0 0
364 2 19.537263142313268 6.594214385217581 1.2341480223407508 0 0 0
232 1 18.04804754978654 8.679543124842139 0.6611344569943677 0 0 0
311 1 18.837043370063256 6.601917030895652 3.728491180812451 0 0 0
331 2 15.721581031110649 9.675510932394571 1.0313203365634074 0 0 0
358 2 15.465947328235364 11.19977342217585 2.3001593209644495 0 0 0
233 1 17.156908426773608 8.492452644255469 4.6445246160844125 0 0 0
256 1 17.849286264865302 6.551900778326374 1.4905421393320588 0 0 0
341 2 18.840008244642306 8.818359857925916 4.991812016358741 0 0 0
277 1 15.881798765845165 9.521749436380583 2.792101108023922 0 0 0
304 1 15.85619633168956 11.401597407991368 0.6075546085715624 0 0 0
422 2 17.363917784936792 10.164087631162207 5.004606292030394 0 0 0
314 1 19.09129043340835 10.579135666118205 4.738271493280844 0 0 0
259 1 17.970210041050752 10.735205098779769 2.5534597232354153 0 0 0
286 1 19.992395124835703 8.863125796572708 2.6844554666188176 0 0 0
340 2 19.71784663380129 9.042844125716684 0.9209722682221748 0 0 0
367 2 19.662359493607564 10.556731321430611 2.2509936482265367 0 0 0
394 2 18.323471179888077 9.007475163756823 2.3324171456217115 0 0 0
421 2 18.254606044482312 10.373676089986306 0.8502255843074197 0 0 0
395 2 17.373123315227307 8.686673000612812 6.365796932399001 0 0 0
368 2 18.715752745135013 10.188413273855723 6.459753394080068 0 0 0
287 1 19.0232105003586 8.495216482893706 6.723511359977103 0 0 0
260 1 17.031847828536673 10.39461004218783 6.685797695744572 0 0 0
349 2 23.799486799156814 8.465306464044511 0.8750346911453406 0 0 0
313 1 19.936820198974363 10.767704731183532 0.523937402195079 0 0 0
404 2 21.493545003797678 8.139366708627719 6.326106253867854 0 0 0
241 1 22.070068603100808 8.12417436115194 0.7761066186670604 0 0 0
430 2 22.319194642302957 9.795382662021028 0.9449244994649093 0 0 0
667 1 21.83109316443621 12.159151645173685 1.859771894963252 0 0 0
722 1 23.02229016493086 11.969720106932726 7.613253274859956 0 0 0
323 1 23.04569166735489 10.049532804849976 4.655126309928116 0 0 0
721 1 23.978620853847474 12.151794284916825 3.638627376573767 0 0 0
296 1 23.18113027995589 8.003232982455717 6.552647194180534 0 0 0
403 2 22.524663936527975 8.447497991317631 2.4359935562532318 0 0 0
776 2 22.70636434890651 12.251544247937204 5.938334096700795 0 0 0
668 1 20.987202369910765 12.074840164799282 5.684100900723028 0 0 0
830 2 21.337508492368123 12.339250357079212 7.400734666635502 0 0 0
269 1 21.198952687022643 9.83150273786605 6.719957643102917 0 0 0
350 2 22.931894719893467 8.283937430183032 4.844812240295503 0 0 0
377 2 22.877131062040377 9.653710561794762 6.341542929917826 0 0 0
376 2 23.855721336794165 9.95829097325747 2.218156898908298 0 0 0
195 2 24.353802664541487 6.5687214345501 8.303963544045214 -1 0 0
32 1 24.861829321898995 6.782118292939957 5.777034452152777 -1 0 0
431 2 21.400775947260414 9.579843624336444 4.949878202060384 0 0 0
242 1 21.229930378461116 7.896115046417992 4.6404374087807785 0 0 0
775 2 23.550819630347757 12.2643253013281 1.9405745946015833 0 0 0
268 1 22.13629761274293 10.151315076786815 2.6105915595722995 0 0 0
295 1 24.195707349909227 8.290070825807376 2.586679649028638 0 0 0
613 2 10.082156537339745 12.541239199236015 3.473945731091105 0 0 0
659 1 16.883426845042287 12.627035435451221 5.579634186966771 0 0 0
713 1 18.803805101282098 12.476571705646903 7.585193616717071 0 0 0
82 1 3.418517279024776 3.173053530777119 0.4979729173033633 0 0 0
18 1 3.941020463521486 8.441222896702044 8.57746712735113 0 0 0
3 1 24.1811498371624 0.9485990820032967 8.546151184629853 -1 0 0
91 1 7.510004855039944 2.6253987041882874 0.48562828862563023 0 0 0
100 1 11.513036441465678 1.9178095233852817 0.5485032601300901 0 0 0
57 1 1.5504622894209432 0.8224075236715873 10.744050594076699 0 0 0
111 2 1.3958004644482553 1.298104571685793 9.077052105540496 0 0 0
138 2 1.1852339443347568 2.5374821049689547 10.635083392546484 0 0 0
84 1 1.6995308118713273 2.99106809470717 8.948114326393691 0 0 0
877 1 4.845210062763769 4.447425621935434 11.768053937902884 0 0 0
39 1 3.730363722852972 2.15508587987929 10.77601925471723 0 0 0
201 2 4.016065562053982 2.0224191620449092 8.977872755852276 0 0 0
60 1 1.7053009420854859 5.0180614768216625 9.92592866558076 0 0 0
42 1 3.66599924161723 6.049704543398312 9.796608067225199 0 0 0
177 2 4.127533246957433 4.407955619667789 9.329330086152698 0 0 0
1066 2 4.929726163287792 6.184980463038771 12.012441386412585 0 0 0
865 1 0.6927863795772811 1.0494238127686502 12.7731678649642 0 0 0
919 1 2.590046703557876 1.16254600318744 14.788984408538116 0 0 0
878 1 3.880766160162661 4.386396327651783 15.746535203181525 0 0 0
892 1 0.5496078472220596 3.0429874632373903 14.633797289063233 0 0 0
946 1 2.5701455220640677 3.1577186109824393 12.718907929616407 0 0 0
973 2 2.3764797352313263 1.4578701831857943 13.0564353991069 0 0 0
1000 2 2.2551520662764397 2.8775504600520283 14.461557887617484 0 0 0
1027 2 0.9184396852804553 1.3710414891393246 14.463293012276791 0 0 0
1054 2 0.8526013899811123 2.72906779589883 13.017226038510653 0 0 0
868 1 0.9791277210610019 4.986915784572414 11.858446894106637 0 0 0
922 1 2.6639993850781343 5.394665611624408 13.9813176230255 0 0 0
976 2 2.5852209691374815 5.663308656150491 12.273105506497213 0 0 0
1030 2 1.0411753234679915 5.391512347604535 13.541731512479055 0 0 0
1067 2 4.0078271518773025 6.085319003869734 16.20934673581708 0 0 0
1039 2 5.114461375903035 4.778683864725639 13.476832819050552 0 0 0
901 1 4.753066167787906 2.552600912614335 14.671302429265625 0 0 0
977 2 1.5744771729431604 5.400133181992532 16.33266321781192 0 0 0
1036 2 5.025169078541727 0.8086623220456244 14.40467761889436 0 0 0
1063 2 4.983586635497186 2.2281420840933883 13.004857786834833 0 0 0
147 2 5.417324370961061 1.9693931926297896 10.426719809575532 0 0 0
69 1 5.780842408257138 4.358848937918516 9.634767183827627 0 0 0
93 1 5.714093167901658 2.3529839143809346 8.77278664173404 0 0 0
48 1 7.883942882610552 1.6719965716283152 10.869440177103652 0 0 0
210 2 8.09565646673786 1.4636455724378157 9.1382077945041 0 0 0
886 1 8.836982886002684 3.850295738974078 12.051885555045061 0 0 0
150 2 5.358506682449943 6.029698677166511 9.504123817589473 0 0 0
51 1 7.80260417096026 5.558413073140894 9.871868021037551 0 0 0
985 2 6.505345755903715 4.992556214408962 12.056150804419882 0 0 0
186 2 8.273453798499919 3.916149348560247 9.460968676596396 0 0 0
78 1 9.975407718364012 3.923949548009724 9.616930678700383 0 0 0
159 2 9.442572007292654 5.572026977902305 9.446602170816005 0 0 0
1075 2 8.920075761373791 5.586457146584362 12.26161624702216 0 0 0
887 1 7.924029817687943 3.760259989566959 16.00549514124476 0 0 0
9 1 24.37073577734472 9.105554650504086 8.706315146830088 -1 0 0
955 1 6.642352358419718 2.5335852354352384 12.691224695275615 0 0 0
982 2 6.432683749630287 0.8316759942046135 12.98472366768301 0 0 0
1009 2 6.424616899553487 2.237152288559265 14.410895731832184 0 0 0
986 2 5.597849553880109 4.862687962516965 16.043892873850083 0 0 0
910 1 8.901488180652814 1.996461863646631 14.905075746329274 0 0 0
1072 2 8.976331347311119 1.5785500408883055 13.282916619366926 0 0 0
959 1 5.6871188539676405 6.55413389768233 15.955100157583564 0 0 0
931 1 6.798704185009734 4.779921559467883 13.774354579070776 0 0 0
1012 2 6.260500766802707 6.420990873036174 13.435208438967079 0 0 0
1048 2 9.29775612027234 4.250495124253178 13.698717915036305 0 0 0
913 1 8.75605688245929 5.896639627636653 13.99258088024763 0 0 0
1076 2 8.00015978701205 5.426044916181541 16.36847299915507 0 0 0
120 2 5.49948578076006 0.666571763741648 8.879266945901437 0 0 0
102 1 9.70811698659337 1.8699745333837419 8.80072445543724 0 0 0
156 2 9.558847870108712 1.484407673326821 10.464212545284008 0 0 0
995 2 9.598351860831713 4.257200749291205 16.138855859258975 0 0 0
968 1 9.684229300995408 6.010136585315169 15.994960958197337 0 0 0
390 2 16.159316844867227 0.47339571405943154 10.259256098512504 0 0 0
174 2 4.0547192887274015 0.4854094401469243 10.2585483328146 0 0 0
300 1 13.899223334386662 3.0194132046952378 9.05635674853947 0 0 0
246 1 11.746352766472336 2.7219144125262744 10.762169901604986 0 0 0
273 1 13.669010853701021 0.8734072176037848 10.80256150349272 0 0 0
327 2 13.68872305977263 1.3112534412468881 9.146557843168335 0 0 0
354 2 13.42022621361779 2.5627640603144526 10.706663301077635 0 0 0
381 2 12.065688677449431 1.0768894435481449 10.303984761348948 0 0 0
408 2 12.212277128987852 2.6679136566136634 9.089245264960462 0 0 0
967 1 10.557037935553486 6.09758767999786 11.818099064119503 0 0 0
384 2 12.247274541002465 5.086390439073359 9.523742336079502 0 0 0
994 2 10.54138012928273 4.436508860828358 12.154772730253548 0 0 0
276 1 13.885509779777967 5.00910431952201 9.953953918878799 0 0 0
964 1 10.601915738255133 1.9198374979563673 12.784482092673734 0 0 0
1018 2 10.553489761813086 1.7005312736373288 14.497219180565656 0 0 0
1081 1 12.868210137669513 1.030250761330497 12.779159356543287 0 0 0
1108 1 12.682973268527862 3.0741329322493693 14.702783896876948 0 0 0
1243 2 13.05118008621834 1.3574666997286267 14.484962880819847 0 0 0
1270 2 13.059589915000137 2.764079691060116 13.00308573354628 0 0 0
940 1 10.975595875930324 4.1902415322147695 13.829629785288825 0 0 0
1021 2 10.445110771273399 5.87709480274646 13.527436516077133 0 0 0
1084 1 13.129921296401005 5.012307289049229 11.873838484772106 0 0 0
1192 2 14.770504846826764 5.605635010005483 12.279497648246666 0 0 0
1246 2 13.22516744763992 5.384388377470212 13.553590877338912 0 0 0
1085 1 12.29965896964335 4.9917386922441365 15.874422581766893 0 0 0
1189 2 14.540316639838945 1.3896299274313264 13.14910532261687 0 0 0
1216 2 14.384774202958077 2.854493619888255 14.49325220866925 0 0 0
1193 2 13.902823351948056 5.583252057075565 16.3632321958102 0 0 0
1135 1 14.69475566221853 1.130685784641817 14.856211912000154 0 0 0
1162 1 14.736439047633015 3.123881156445535 12.822938293382448 0 0 0
1576 1 18.78854717857583 12.554443359806214 15.76532237899304 0 0 0
1138 1 14.877581994549375 5.4288889330148145 13.999284381944376 0 0 0
393 2 16.31431672771516 4.3857278222521 9.332384770433872 0 0 0
1093 1 17.139039543636933 4.497703564948299 11.733313360413478 0 0 0
255 1 15.928300164945348 2.1753320468056963 10.675220065652033 0 0 0
363 2 17.592223660857655 1.8612145377868354 10.409562835348963 0 0 0
417 2 16.158304925143817 1.9522113346646193 8.933350109658695 0 0 0
285 1 18.047299926569845 4.235905101494577 9.627653131190472 0 0 0
309 1 17.87099198767987 2.263244276985083 8.732300996395223 0 0 0
258 1 15.854091829699291 6.031748703744942 9.829061595741884 0 0 0
366 2 17.56364598969385 5.926696681417611 9.516790372770776 0 0 0
1201 2 18.775331784349113 4.967399269399273 12.10170048610848 0 0 0
1282 2 17.183237012069398 6.22060740571318 11.988786147841362 0 0 0
336 2 17.63352721725388 0.5639823346941404 8.918936612570318 0 0 0
1094 1 16.106104876708724 4.384310888979199 15.791191818582302 0 0 0
1132 1 21.262780643000642 10.051061761451484 14.861453352686263 0 0 0
1117 1 16.929115869596473 2.567680885104867 14.640125618458237 0 0 0
1171 1 18.890287069579866 2.5062802065899517 12.646431957691615 0 0 0
1198 2 18.604893609252734 0.8108963586190308 12.974050844926312 0 0 0
1225 2 18.578038444292595 2.2795431577367733 14.348115648927037 0 0 0
1252 2 17.220602262248743 0.8577299788702387 14.43745026810069 0 0 0
1279 2 17.14899169611093 2.1715591844530158 12.943401279700884 0 0 0
1531 1 20.892533617983386 12.152928082384923 13.955610126621043 0 0 0
1202 2 17.73389838509987 4.8454980652168 16.06244832955546 0 0 0
1283 2 16.19269989175895 6.073578954561076 16.274521110526216 0 0 0
1147 1 18.98071515877491 4.820116430823529 13.800237475467235 0 0 0
1255 2 17.310213630868006 4.813599406456554 13.430320967109335 0 0 0
1228 2 18.480926116158006 6.422844786772513 13.474674252877952 0 0 0
243 1 20.273983128821897 7.882395670750239 8.6205679631668 0 0 0
165 2 24.263855209213926 1.0683926643908495 10.335162854315998 -1 0 0
192 2 24.411255740692294 2.6865460893161517 9.085800274693824 -1 0 0
30 1 23.96379568199441 2.721030353487709 10.727535713166933 -1 0 0
264 1 20.074147641869995 1.6111734995569997 10.807696488583186 0 0 0
372 2 21.75462745113435 1.4101234416657515 10.471107808756571 0 0 0
426 2 20.286206863865505 1.4447482381455607 9.113452975458367 0 0 0
1102 1 21.117288886326367 3.833474437991463 11.9573425228772 0 0 0
168 2 24.493591194407465 4.98019474313868 9.498061500989149 -1 0 0
267 1 20.022109128874153 5.487541531382644 9.927577376570733 0 0 0
402 2 20.538754939750483 3.829228597639491 9.408051586625302 0 0 0
294 1 22.206078749533077 3.902666280181555 9.608003681430024 0 0 0
375 2 21.67317742636135 5.519652949060165 9.442600601441702 0 0 0
1183 1 22.687559770318217 6.109079479583193 11.847376672548952 0 0 0
1210 2 22.77630945267553 4.451625307994526 12.11667573382807 0 0 0
1291 2 21.10451745071446 5.560466427357553 12.235250507167603 0 0 0
1103 1 20.10724824620387 3.769515135142622 15.833048680839552 0 0 0
1126 1 21.09828503809362 1.9755442853552974 14.832687904690232 0 0 0
1180 1 22.814789899519347 1.9433703032823428 12.685600824127258 0 0 0
1234 2 22.767266594584942 1.7093172684417488 14.41207504008565 0 0 0
1288 2 21.206088929312163 1.5380666745926066 13.163572003247054 0 0 0
1211 2 21.796629271039702 4.22794172622584 16.052710534195093 0 0 0
1292 2 20.204250648021397 5.418378138306848 16.316140680667985 0 0 0
869 1 24.35957557756532 4.943299156045514 15.852914560266736 -1 0 0
1184 1 21.87078146672119 5.9889405891929055 15.947484102510929 0 0 0
1156 1 23.257663922110222 4.196196488602746 13.846927254419304 0 0 0
1264 2 21.50610359018865 4.170615348301034 13.6543849741151 0 0 0
1129 1 20.99036039734091 5.785258921766555 13.932488282497353 0 0 0
1237 2 22.65098863887088 5.835183436001977 13.553537077428455 0 0 0
1639 2 22.660050463664952 12.21586825577611 14.09523142772634 0 0 0
1585 1 22.99423356536729 12.063629988346442 15.734598843505404 0 0 0
141 2 1.1975808218761648 6.640836413398912 9.84860373154127 0 0 0