LAMMPS data file via MDAnalysis

       45364  atoms
           0  bonds
           0  angles
           0  dihedrals
           0  impropers

           2  atom types
           0  bond types
           0  angle types
           0  dihedral types
           0  improper types

0.000000 100.000000 xlo xhi
0.000000 100.000000 ylo yhi
0.000000 139.483459 zlo zhi


Masses

1 58.710000
2 15.999000

Atoms

1 0 1 94.417351 0.847051 117.510086
2 0 1 99.293289 2.562683 118.418594
3 0 1 97.746353 1.415283 119.760696
4 0 1 95.782692 3.830642 122.960632
5 0 1 99.784988 0.384098 119.928833
6 0 1 1.047719 2.781162 119.971619
7 0 1 1.434214 0.447963 121.353745
8 0 1 99.396606 2.096427 121.508148
9 0 1 2.642966 0.846577 119.243698
10 0 1 4.940954 1.991756 119.451660
11 0 1 5.030192 0.751730 121.603699
12 0 1 3.144843 2.279710 121.331955
13 0 1 8.840072 0.062095 118.890137
14 0 1 13.590335 1.456360 117.996216
15 0 1 11.092758 0.990818 117.457947
16 0 1 7.062647 1.567793 120.751480
17 0 1 10.343612 97.149277 118.418381
18 0 1 15.037629 2.914660 116.763657
19 0 1 10.844372 1.955324 119.439941
20 0 1 9.261526 3.318057 120.609879
21 0 1 17.075117 2.090580 117.760590
22 0 1 17.722198 4.849625 117.244019
23 0 1 16.882334 3.857238 119.532562
24 0 1 14.534499 3.815320 118.864410
25 0 1 19.006947 0.351118 117.910248
26 0 1 19.169195 2.641372 116.438354
27 0 1 21.030365 3.176921 119.152817
28 0 1 18.898726 3.726192 118.631607
29 0 1 21.831398 1.249251 117.634964
30 0 1 23.186085 5.114069 119.720139
31 0 1 95.963882 3.886323 119.738724
32 0 1 98.227806 5.426838 119.282806
33 0 1 97.605957 3.824274 121.272476
34 0 1 95.838524 5.698136 121.140030
35 0 1 1.298966 5.344551 119.475861
36 0 1 2.336741 9.506516 119.255127
37 0 1 1.268116 4.088100 121.704025
38 0 1 99.511116 5.734130 121.261688
39 0 1 3.294906 3.724649 119.331177
40 0 1 4.766560 5.520419 119.485092
41 0 1 5.114702 3.660712 121.257828
42 0 1 3.171361 5.534665 121.266769
43 0 1 6.757448 3.417511 119.466614
44 0 1 7.443160 5.398722 119.922546
45 0 1 8.926193 2.592234 118.337463
46 0 1 6.081979 5.932488 121.477722
47 0 1 12.224874 3.950739 118.092850
48 0 1 11.128444 6.178900 118.988098
49 0 1 11.388560 4.134206 120.419632
50 0 1 9.716290 5.876141 120.883865
51 0 1 13.515986 6.059988 118.392044
52 0 1 15.036069 6.732786 116.719498
53 0 1 15.749353 6.099540 118.943268
54 0 1 13.287512 5.287933 120.328278
55 0 1 20.574375 4.644432 117.036545
56 0 1 19.552027 7.345810 117.803192
57 0 1 18.144506 6.133154 119.303513
58 0 1 16.631247 5.924726 121.374725
59 0 1 20.623209 5.510033 119.113953
60 0 1 23.987524 7.241225 120.631760
61 0 1 96.251755 6.654349 119.184967
62 0 1 97.056244 9.317589 119.710815
63 0 1 97.667786 7.293629 121.060318
64 0 1 95.353325 8.512213 121.237381
65 0 1 99.947250 7.295774 119.029694
66 0 1 1.417197 11.092960 121.113312
67 0 1 1.365923 7.488436 121.103928
68 0 1 99.451546 9.225728 121.207703
69 0 1 3.510718 6.852118 118.008957
70 0 1 4.560959 9.238258 119.937866
71 0 1 4.759041 7.654128 121.599670
72 0 1 2.942800 9.360722 121.700104
73 0 1 6.076248 7.681781 119.302612
74 0 1 4.852038 9.861910 117.881409
75 0 1 8.044227 7.740285 121.253754
76 0 1 6.487850 9.378790 121.332825
77 0 1 10.088451 8.315927 119.788818
78 0 1 9.244907 11.520770 119.216568
79 0 1 11.883639 7.267693 120.775024
80 0 1 9.748340 9.958014 121.313675
81 0 1 13.089890 8.478009 118.734497
82 0 1 15.655209 10.395116 118.537399
83 0 1 14.303617 7.601974 120.526840
84 0 1 12.462539 9.582955 120.981995
85 0 1 16.424347 8.207264 119.685959
86 0 1 18.017992 10.025150 119.372253
87 0 1 18.145300 8.016777 121.272736
88 0 1 16.861938 10.053964 121.194870
89 0 1 20.285837 7.321702 120.558350
90 0 1 19.756250 9.828390 120.732635
91 0 1 95.200165 10.926009 120.169586
92 0 1 95.838440 13.196371 119.290466
93 0 1 97.596870 10.787136 121.310959
94 0 1 95.844589 12.702164 121.465698
95 0 1 99.076935 11.588656 119.396439
96 0 1 99.719231 13.834207 117.416412
97 0 1 1.288038 12.660769 119.054703
98 0 1 99.131714 12.480252 121.572372
99 0 1 3.051815 12.269114 117.771652
100 0 1 4.982489 13.556831 117.652802
101 0 1 4.637720 11.230821 121.506607
102 0 1 2.738895 12.952877 121.465942
103 0 1 8.600456 15.812754 118.769608
104 0 1 7.155748 13.358861 119.345200
105 0 1 6.144583 11.031418 119.630569
106 0 1 4.709543 12.770466 119.608307
107 0 1 8.142040 9.604880 119.583710
108 0 1 7.428819 11.113538 117.555939
109 0 1 11.273640 11.819764 121.065277
110 0 1 7.851837 11.529855 121.261444
111 0 1 11.334224 10.428350 118.831238
112 0 1 13.352720 11.251005 119.347031
113 0 1 15.059247 11.693981 120.817184
114 0 1 12.851913 13.630563 120.952957
115 0 1 14.753944 13.521647 119.404465
116 0 1 17.898254 14.485826 119.027969
117 0 1 17.121305 12.390446 119.974396
118 0 1 16.375824 14.181638 121.014572
119 0 1 19.464724 11.823526 119.558731
120 0 1 19.378727 13.717043 121.003250
121 0 1 97.556221 14.299923 121.311661
122 0 1 97.604317 14.940951 118.913345
123 0 1 99.128990 16.088352 121.567825
124 0 1 96.446495 16.221079 121.240799
125 0 1 99.560226 13.900095 119.895554
126 0 1 99.389938 16.478046 119.509399
127 0 1 1.350252 15.084328 121.125412
128 0 1 0.902308 17.800808 120.933304
129 0 1 3.093656 14.368116 119.377365
130 0 1 3.262756 16.979795 121.077957
131 0 1 6.058435 13.174849 121.479584
132 0 1 4.115891 14.746386 121.434357
133 0 1 5.290867 15.418314 119.607452
134 0 1 7.271572 17.560169 120.533386
135 0 1 7.404013 15.151478 120.982101
136 0 1 5.589467 16.531841 121.658798
137 0 1 10.802500 15.512398 119.559814
138 0 1 11.270927 13.140882 119.169617
139 0 1 9.416445 13.792854 120.739594
140 0 1 9.644012 16.578300 121.285065
141 0 1 8.925764 12.980713 116.628281
142 0 1 13.074135 15.250090 119.117874
143 0 1 14.278251 15.635318 120.952560
144 0 1 12.240196 17.235031 120.597412
145 0 1 15.873721 15.592992 118.912552
146 0 1 17.517696 17.462067 118.736084
147 0 1 18.128090 15.992190 120.722519
148 0 1 16.202423 17.279652 120.766281
149 0 1 20.667023 17.523252 118.529327
150 0 1 20.374008 16.634954 120.717712
151 0 1 95.705711 18.607687 120.451035
152 0 1 97.491051 20.348131 120.278122
153 0 1 98.151512 18.211006 120.812286
154 0 1 95.425377 20.386911 121.599167
155 0 1 97.025497 17.036341 119.228424
156 0 1 98.627228 19.774870 117.987946
157 0 1 0.669103 19.792370 119.575638
158 0 1 99.426003 20.021139 121.586914
159 0 1 1.471660 18.416143 117.707367
160 0 1 3.137381 22.938089 120.057312
161 0 1 2.381165 21.168098 118.937927
162 0 1 1.209743 21.952673 121.263885
163 0 1 4.838208 19.320211 119.610977
164 0 1 7.240774 22.467344 121.604599
165 0 1 7.054524 19.957415 121.496765
166 0 1 4.632848 18.775831 121.723129
167 0 1 10.251292 20.277073 119.772873
168 0 1 12.659235 20.695778 121.517838
169 0 1 10.881566 18.986092 121.866577
170 0 1 9.394501 21.256046 121.610504
171 0 1 11.461599 15.167998 117.508942
172 0 1 11.832265 17.659472 117.841400
173 0 1 12.604677 19.336754 119.618256
174 0 1 13.765530 21.308966 119.441452
175 0 1 14.264319 17.410955 119.236313
176 0 1 15.483753 19.633186 118.873627
177 0 1 18.477621 18.611826 120.759644
178 0 1 14.612238 19.185789 120.984802
179 0 1 17.749165 20.614132 119.384750
180 0 1 19.865633 21.944271 120.413666
181 0 1 95.854202 20.668131 118.905701
182 0 1 97.908073 22.781847 118.886459
183 0 1 97.503616 22.256983 121.567429
184 0 1 95.938271 24.616508 120.577194
185 0 1 0.200787 21.970343 117.816986
186 0 1 1.029662 23.806824 119.225342
187 0 1 99.418533 21.622360 119.990921
188 0 1 99.427490 23.627823 121.404312
189 0 1 2.611072 25.563784 119.475082
190 0 1 4.770381 24.500624 119.238068
191 0 1 4.908720 21.331146 121.397125
192 0 1 2.039642 24.275391 121.419312
193 0 1 6.552596 21.622135 119.343475
194 0 1 5.298307 23.362595 121.067566
195 0 1 5.959156 22.253752 123.417908
196 0 1 4.287609 25.731785 121.245300
197 0 1 9.225497 23.423687 120.491562
198 0 1 11.554728 22.705940 118.653885
199 0 1 11.523643 22.583727 121.045639
200 0 1 10.547171 25.438423 120.848282
201 0 1 14.406701 21.020472 117.001282
202 0 1 13.991963 24.695127 120.559555
203 0 1 14.018191 22.593317 121.620804
204 0 1 12.447867 26.980021 120.855118
205 0 1 15.971943 21.441168 120.441971
206 0 1 16.705442 23.586937 119.115829
207 0 1 17.846144 22.302668 121.345230
208 0 1 16.270411 24.397852 121.742523
209 0 1 19.825975 23.260021 118.554642
210 0 1 19.920853 24.275000 121.468842
211 0 1 94.556961 26.799326 117.730026
212 0 1 99.652954 28.155588 121.055756
213 0 1 98.081390 26.346701 120.734299
214 0 1 0.415044 25.755749 121.349380
215 0 1 3.100695 23.462271 117.697388
216 0 1 2.179819 27.343876 121.287979
217 0 1 1.204875 29.827509 120.501465
218 0 1 7.056816 24.846912 120.242279
219 0 1 9.116347 25.824326 119.018036
220 0 1 10.781383 27.575768 119.551651
221 0 1 11.638769 26.947279 117.203705
222 0 1 14.480105 26.460127 121.923843
223 0 1 17.998306 25.786793 121.529053
224 0 1 19.065903 27.841814 120.981812
225 0 1 18.814451 25.735588 119.314133
226 0 1 95.862381 0.257927 123.174698
227 0 1 97.591522 1.929767 123.007385
228 0 1 97.657555 0.319532 124.787460
229 0 1 95.895538 2.063499 124.808334
230 0 1 97.792358 0.106519 121.457489
231 0 1 1.247805 2.071326 123.142944
232 0 1 99.542007 0.300954 123.098557
233 0 1 99.415459 2.038062 124.794373
234 0 1 3.174267 0.388831 123.103500
235 0 1 4.884597 2.389769 123.185349
236 0 1 4.881133 0.456996 124.809158
237 0 1 3.069495 2.157644 124.914658
238 0 1 6.740963 0.465478 123.153961
239 0 1 8.607314 2.402302 122.804596
240 0 1 8.511133 0.684298 124.738617
241 0 1 6.661294 2.276308 124.696747
242 0 1 9.129860 0.764569 121.072098
243 0 1 11.165689 2.184953 121.928040
244 0 1 10.493427 0.508898 123.371414
245 0 1 10.145021 2.468922 124.607666
246 0 1 13.200588 2.472939 120.345734
247 0 1 15.036419 3.780130 121.262085
248 0 1 14.902759 2.204832 123.316315
249 0 1 12.615442 2.254538 124.050949
250 0 1 16.914474 2.380233 121.638535
251 0 1 19.266972 3.274057 121.037216
252 0 1 18.596865 2.528702 123.376297
253 0 1 16.644264 4.083085 123.219803
254 0 1 21.540888 2.565171 121.452042
255 0 1 22.140450 2.428856 123.639908
256 0 1 94.037621 5.469660 122.737503
257 0 1 97.627121 5.630882 122.945923
258 0 1 97.511818 3.911097 124.722046
259 0 1 95.818993 5.481076 124.738693
260 0 1 99.284317 3.850576 123.005707
261 0 1 1.247305 5.816004 123.112564
262 0 1 1.158134 3.945608 124.742310
263 0 1 99.301140 5.656909 124.713745
264 0 1 2.966748 3.845813 123.266846
265 0 1 4.651197 5.736601 123.202927
266 0 1 4.734312 3.996963 124.973068
267 0 1 2.883519 5.771191 124.879028
268 0 1 6.547453 4.192908 123.244965
269 0 1 8.150150 5.811018 122.871155
270 0 1 8.451856 4.242606 124.626831
271 0 1 6.554307 5.931920 124.812653
272 0 1 10.224797 4.331644 122.757507
273 0 1 11.903753 5.995900 122.730072
274 0 1 11.651303 4.386763 124.631638
275 0 1 10.005588 6.000162 124.695557
276 0 1 12.970926 3.889245 122.402512
277 0 1 14.581706 5.952958 122.505951
278 0 1 14.540080 4.339428 124.359650
279 0 1 13.331466 6.284410 124.632919
280 0 1 19.125834 5.658209 121.582642
281 0 1 18.285109 5.600450 123.614853
282 0 1 20.232706 4.163320 123.278702
283 0 1 16.098801 6.175213 124.176041
284 0 1 21.283588 5.025928 121.271515
285 0 1 20.371355 6.658509 123.766678
286 0 1 95.789352 7.274470 123.086487
287 0 1 97.524666 9.021694 122.849030
288 0 1 97.656265 7.345441 124.723663
289 0 1 95.728348 9.015001 124.553558
290 0 1 99.429558 7.419128 122.913223
291 0 1 1.061881 9.264461 123.021896
292 0 1 0.996130 7.629381 124.743698
293 0 1 99.256180 9.227777 124.786392
294 0 1 3.026859 7.522645 123.075378
295 0 1 4.741974 9.460116 123.195709
296 0 1 4.731539 7.529545 124.881119
297 0 1 2.857748 9.316195 124.753723
298 0 1 6.443957 7.611561 123.203003
299 0 1 8.103878 9.614452 123.076981
300 0 1 8.276904 7.794150 124.691422
301 0 1 6.392148 9.496410 124.737579
302 0 1 10.085824 7.850286 122.675537
303 0 1 11.441921 9.898787 123.135620
304 0 1 11.518990 8.019567 124.637878
305 0 1 9.717604 9.795326 124.776581
306 0 1 13.051042 8.181535 122.786209
307 0 1 14.661138 10.012053 122.599487
308 0 1 14.874671 8.204928 124.430130
309 0 1 13.132832 9.985003 124.652832
310 0 1 15.971665 8.125533 122.409622
311 0 1 18.350945 10.064576 122.840332
312 0 1 18.077185 7.924116 124.046967
313 0 1 16.515568 9.923172 124.352875
314 0 1 20.395861 8.696963 122.545578
315 0 1 20.045340 10.087699 124.403656
316 0 1 95.519684 10.754199 122.741241
317 0 1 97.460266 12.615775 123.121887
318 0 1 97.333153 10.967559 124.813187
319 0 1 95.667931 12.735642 124.746872
320 0 1 99.111671 10.852211 123.120178
321 0 1 1.046991 12.864693 122.943756
322 0 1 1.070187 11.070250 124.699814
323 0 1 99.299751 12.718165 124.702194
324 0 1 2.837402 11.148000 123.155365
325 0 1 4.348399 13.058055 123.193497
326 0 1 4.563036 11.227992 124.878876
327 0 1 2.729652 12.853002 124.951736
328 0 1 6.318248 11.389981 123.061096
329 0 1 7.942159 13.404253 123.034668
330 0 1 7.997177 11.426368 124.954803
331 0 1 6.203377 13.061678 124.905502
332 0 1 9.618114 11.605073 122.965286
333 0 1 11.340302 13.399978 122.948822
334 0 1 11.510045 11.601837 124.811600
335 0 1 9.753258 13.356043 124.707214
336 0 1 13.002557 11.721064 122.634827
337 0 1 14.589048 13.535845 122.744141
338 0 1 14.884109 11.753953 124.472061
339 0 1 13.074722 13.418781 124.612366
340 0 1 16.605995 11.996028 122.597290
341 0 1 18.196791 13.793827 122.936707
342 0 1 18.323000 11.796777 124.483734
343 0 1 16.463753 13.594807 124.542221
344 0 1 19.682928 11.779717 122.474457
345 0 1 19.976778 13.541759 124.449982
346 0 1 95.720161 14.544625 123.063187
347 0 1 97.450493 16.244205 123.264236
348 0 1 97.471550 14.499032 124.847977
349 0 1 95.622353 16.308701 124.855331
350 0 1 99.308273 14.487727 123.093094
351 0 1 1.009117 16.465824 123.114136
352 0 1 0.907793 14.622406 124.983704
353 0 1 99.266525 16.413086 124.795792
354 0 1 2.566725 14.746546 123.317352
355 0 1 4.167307 16.543875 123.322540
356 0 1 4.359648 14.756558 124.957275
357 0 1 2.535367 16.584173 125.003159
358 0 1 5.993436 14.783453 123.134018
359 0 1 7.719867 16.506899 122.926697
360 0 1 7.814100 14.890102 124.720688
361 0 1 6.107594 16.657650 124.826614
362 0 1 9.720684 14.929198 122.791641
363 0 1 11.363412 16.864296 122.857986
364 0 1 11.294663 15.226427 124.764160
365 0 1 9.471537 16.794493 124.637268
366 0 1 12.991331 15.247152 123.002914
367 0 1 14.549173 17.082874 122.824265
368 0 1 14.803744 15.279898 124.548767
369 0 1 13.031645 16.925776 124.748611
370 0 1 16.439354 15.608517 122.691833
371 0 1 18.264954 17.261402 122.769806
372 0 1 18.327700 15.357362 124.504257
373 0 1 16.440294 17.028168 124.627319
374 0 1 19.987074 15.394577 122.799698
375 0 1 19.896456 17.246286 124.717773
376 0 1 95.702400 18.134007 122.894867
377 0 1 97.415619 19.972843 122.984543
378 0 1 97.436264 18.167992 124.765808
379 0 1 95.490959 21.499449 123.548294
380 0 1 99.266869 18.237946 123.023392
381 0 1 1.185240 20.140900 122.990768
382 0 1 0.892900 18.214832 124.868317
383 0 1 99.147629 19.967491 124.819321
384 0 1 2.588720 18.366714 123.016144
385 0 1 2.842153 20.110271 120.951080
386 0 1 4.301261 18.357729 124.776291
387 0 1 2.468544 20.072628 125.062454
388 0 1 6.204206 18.531748 123.257767
389 0 1 7.865612 20.746815 123.435272
390 0 1 7.938107 18.494467 124.853165
391 0 1 6.012145 20.278202 124.907532
392 0 1 8.869455 18.457655 122.502426
393 0 1 10.872265 20.853100 123.228928
394 0 1 11.145872 18.663563 124.614548
395 0 1 9.477870 20.498903 125.106476
396 0 1 12.879098 18.742756 122.896149
397 0 1 14.498614 20.639526 123.076813
398 0 1 14.772149 18.737020 124.619049
399 0 1 12.893381 20.434052 124.875061
400 0 1 16.354565 18.886374 122.713440
401 0 1 18.282656 20.517469 122.949722
402 0 1 18.098972 18.784472 124.664337
403 0 1 16.502285 20.634111 124.696640
404 0 1 19.952988 18.978712 122.773514
405 0 1 20.024389 20.482967 124.684647
406 0 1 95.501015 22.371698 120.206436
407 0 1 97.356720 23.302776 123.669571
408 0 1 97.296844 21.652039 125.141403
409 0 1 95.336884 23.371798 122.360519
410 0 1 99.149719 21.853716 123.270264
411 0 1 0.746896 23.713490 123.394791
412 0 1 0.853496 21.885544 124.939728
413 0 1 98.974144 23.491425 125.196320
414 0 1 2.877414 22.180140 122.715439
415 0 1 4.135113 24.074827 123.159515
416 0 1 4.207940 21.859930 125.069717
417 0 1 2.521598 23.768085 124.934372
418 0 1 4.044511 20.287722 123.434097
419 0 1 7.955763 23.563477 123.396118
420 0 1 7.607868 22.243454 125.242722
421 0 1 5.877076 23.809366 125.032227
422 0 1 10.239870 23.606668 122.708878
423 0 1 12.405864 24.587650 122.170425
424 0 1 11.198754 22.323488 125.113495
425 0 1 9.488996 24.008471 125.045898
426 0 1 12.664548 22.399500 123.453934
427 0 1 14.528481 24.402037 123.250748
428 0 1 14.592589 22.435389 124.768661
429 0 1 12.752715 24.310410 124.934341
430 0 1 16.207531 22.378328 123.039352
431 0 1 18.226210 24.112053 123.081512
432 0 1 18.212120 22.405308 124.699295
433 0 1 16.307346 24.217436 124.841324
434 0 1 19.935635 22.366451 123.051849
435 0 1 19.976416 24.054188 124.891510
436 0 1 95.120621 25.546326 123.380478
437 0 1 97.160538 25.485144 124.874893
438 0 1 99.076828 25.282579 123.345261
439 0 1 0.632042 25.436350 125.050018
440 0 1 2.372739 25.748312 123.220551
441 0 1 4.138688 25.541031 124.987503
442 0 1 6.168504 25.269285 122.886002
443 0 1 7.613877 25.609699 124.911896
444 0 1 8.547039 25.366796 122.140350
445 0 1 10.956985 25.891855 125.010757
446 0 1 12.850618 26.438086 123.444855
447 0 1 14.533613 26.064304 125.162979
448 0 1 16.376032 26.202282 123.281052
449 0 1 18.172121 25.865473 124.935730
450 0 1 20.000591 26.023033 123.385529
451 0 1 95.935936 0.190807 126.413559
452 0 1 97.787766 2.107036 126.548706
453 0 1 97.700890 0.269734 128.252808
454 0 1 95.916725 1.888154 128.082504
455 0 1 99.546440 0.256772 126.558548
456 0 1 1.189970 2.132795 126.429016
457 0 1 1.354994 0.327129 128.233902
458 0 1 99.430542 2.148652 128.234589
459 0 1 1.411087 0.288372 124.728424
460 0 1 4.918850 2.145142 126.588760
461 0 1 2.995794 0.360445 126.564957
462 0 1 3.015905 2.078519 128.116653
463 0 1 6.711937 0.484149 126.407059
464 0 1 8.397665 2.322680 126.544144
465 0 1 8.435780 0.607996 128.348419
466 0 1 6.645939 2.230922 128.288605
467 0 1 10.279405 0.636758 126.506317
468 0 1 11.839293 2.537910 126.465347
469 0 1 12.005230 0.700371 128.305725
470 0 1 10.070947 2.451333 128.309875
471 0 1 12.428432 0.491397 125.484833
472 0 1 14.425266 2.466941 125.803101
473 0 1 14.023116 0.761749 127.248383
474 0 1 13.579104 2.769952 128.345200
475 0 1 16.720516 2.266320 124.998810
476 0 1 18.482437 3.733244 125.281342
477 0 1 18.332457 2.022356 126.959198
478 0 1 16.047285 2.423925 127.494446
479 0 1 20.369915 2.200233 125.164413
480 0 1 20.154671 3.592351 127.154358
481 0 1 95.736183 3.801449 126.512726
482 0 1 97.537323 5.699869 126.379425
483 0 1 97.660927 4.015818 128.123413
484 0 1 95.770653 5.503137 128.100983
485 0 1 99.399017 3.851080 126.412506
486 0 1 1.126630 5.824838 126.508606
487 0 1 1.243731 3.859083 128.182068
488 0 1 99.465736 5.735552 128.307114
489 0 1 2.868576 3.991414 126.526627
490 0 1 4.577472 5.752916 126.504471
491 0 1 4.776820 3.960361 128.194336
492 0 1 2.835868 5.716821 128.217911
493 0 1 6.664794 4.163685 126.455566
494 0 1 8.244464 6.068358 126.505997
495 0 1 8.139765 4.105525 128.253326
496 0 1 6.255177 6.010455 128.151123
497 0 1 9.929295 4.124979 126.546951
498 0 1 11.548307 6.165512 126.441376
499 0 1 11.693048 4.327301 128.287811
500 0 1 9.813909 6.038841 128.191589
501 0 1 13.436671 4.503507 126.507904
502 0 1 15.078931 6.412826 126.390427
503 0 1 15.121963 4.570041 128.273346
504 0 1 13.408771 6.238317 128.197556
505 0 1 16.211098 4.371910 125.972519
506 0 1 17.997948 6.170147 126.052444
507 0 1 18.074654 4.393074 127.747742
508 0 1 16.708168 6.479432 128.095444
509 0 1 20.233692 5.316363 125.517426
510 0 1 20.020926 6.344326 127.804337
511 0 1 95.616280 7.361835 126.404373
512 0 1 97.491234 9.173556 126.404938
513 0 1 97.482193 7.403170 128.160736
514 0 1 95.617592 9.059971 128.168243
515 0 1 99.266403 7.496629 126.540436
516 0 1 1.086264 9.337275 126.421066
517 0 1 1.078659 7.540529 128.328979
518 0 1 99.255249 9.212373 128.167328
519 0 1 2.812385 7.505448 126.507370
520 0 1 4.528295 9.312940 126.608963
521 0 1 4.609130 7.500776 128.270798
522 0 1 2.756542 9.371721 128.331833
523 0 1 6.464235 7.748808 126.506180
524 0 1 8.039955 9.685684 126.528381
525 0 1 8.117783 7.859194 128.208481
526 0 1 6.341696 9.520016 128.341278
527 0 1 9.884031 7.944368 126.415207
528 0 1 11.553640 9.778197 126.441666
529 0 1 11.535020 7.995556 128.156662
530 0 1 9.859731 9.615113 128.201752
531 0 1 13.140595 7.986478 126.409180
532 0 1 14.978173 9.809899 126.216919
533 0 1 14.998081 8.149786 128.049484
534 0 1 13.284285 9.749291 128.109390
535 0 1 16.790258 8.112751 126.135834
536 0 1 18.334583 9.911090 126.127594
537 0 1 18.488857 8.131392 127.891037
538 0 1 16.675270 9.931883 127.961929
539 0 1 20.076456 8.097866 125.878265
540 0 1 20.168724 10.003107 127.904373
541 0 1 95.480858 10.852668 126.398499
542 0 1 97.298775 12.754972 126.457230
543 0 1 97.385529 10.919686 128.261856
544 0 1 95.627426 12.625452 128.325562
545 0 1 99.290367 11.075022 126.418701
546 0 1 1.016512 12.919363 126.591843
547 0 1 0.880516 11.064865 128.263290
548 0 1 99.166862 12.869884 128.239029
549 0 1 2.736356 11.057620 126.613495
550 0 1 4.358969 13.012327 126.621521
551 0 1 4.423410 11.148368 128.343689
552 0 1 2.624996 12.784632 128.359985
553 0 1 6.212196 11.299668 126.602829
554 0 1 8.001015 13.180732 126.600510
555 0 1 8.082612 11.409008 128.364685
556 0 1 6.276438 13.182336 128.314346
557 0 1 9.829743 11.476939 126.508102
558 0 1 11.430026 13.266164 126.562408
559 0 1 11.541105 11.506343 128.283585
560 0 1 9.754448 13.151710 128.427338
561 0 1 13.303356 11.573922 126.457138
562 0 1 14.826632 13.460781 126.390564
563 0 1 15.008697 11.664651 128.117264
564 0 1 13.128764 13.345262 128.082306
565 0 1 16.664751 11.788462 126.203964
566 0 1 18.363806 13.624531 126.313568
567 0 1 18.310858 11.709647 127.943848
568 0 1 16.668116 13.548436 128.086914
569 0 1 20.063805 11.882135 126.267776
570 0 1 20.058615 13.590694 128.118866
571 0 1 95.597961 14.432433 126.676468
572 0 1 97.300545 16.331638 126.471924
573 0 1 97.299446 14.527724 128.418610
574 0 1 95.437485 17.955797 126.584793
575 0 1 99.140991 14.602963 126.623032
576 0 1 0.821378 16.441954 126.759048
577 0 1 0.937339 14.751287 128.435211
578 0 1 99.022339 16.373974 128.381866
579 0 1 2.701725 14.674358 126.558502
580 0 1 4.417638 16.646317 126.531296
581 0 1 4.360699 14.861321 128.324799
582 0 1 2.657011 16.549276 128.362778
583 0 1 6.064468 14.851565 126.483856
584 0 1 7.815787 16.581823 126.505188
585 0 1 7.892415 14.891690 128.444092
586 0 1 6.052564 16.622519 128.438995
587 0 1 9.595448 14.995657 126.570099
588 0 1 11.222625 16.839497 126.575180
589 0 1 11.394875 15.050330 128.327362
590 0 1 9.574360 16.628319 128.302307
591 0 1 13.122733 15.161741 126.479156
592 0 1 14.788324 16.964771 126.482956
593 0 1 14.908204 15.182035 128.186798
594 0 1 13.036048 16.823025 128.407837
595 0 1 16.569704 15.371945 126.354919
596 0 1 18.317438 17.136963 126.410675
597 0 1 18.396872 15.317812 128.197388
598 0 1 16.605528 16.905981 128.228882
599 0 1 20.040260 15.370239 126.356369
600 0 1 20.081297 17.171335 128.139587
601 0 1 95.472481 19.850115 125.047562
602 0 1 97.168396 19.743116 126.665787
603 0 1 97.284912 18.107853 128.278427
604 0 1 95.461960 19.744028 128.340729
605 0 1 99.107056 18.202473 126.586090
606 0 1 0.779317 20.026985 126.683243
607 0 1 0.602706 18.261604 128.406311
608 0 1 98.984695 19.995687 128.433640
609 0 1 2.534856 18.315029 126.784592
610 0 1 4.227380 20.090649 126.792923
611 0 1 4.364074 18.260571 128.511490
612 0 1 2.487001 20.021118 128.542892
613 0 1 6.057012 18.345625 126.593948
614 0 1 7.727815 20.175287 126.673843
615 0 1 7.756309 18.361368 128.388184
616 0 1 5.975895 20.186296 128.468246
617 0 1 9.519464 18.479897 126.680679
618 0 1 11.291545 20.418320 126.620224
619 0 1 11.252618 18.631504 128.304825
620 0 1 9.513846 20.231447 128.453400
621 0 1 12.955179 18.628746 126.446411
622 0 1 14.775520 20.455698 126.478928
623 0 1 14.799758 18.699715 128.256546
624 0 1 12.948173 20.320459 128.260544
625 0 1 16.509577 18.765591 126.432007
626 0 1 18.250502 20.616379 126.559570
627 0 1 18.119331 18.735346 128.343674
628 0 1 16.363504 20.579079 128.263489
629 0 1 19.943731 18.993130 126.474472
630 0 1 20.061026 20.582085 128.355377
631 0 1 95.359581 21.683289 126.717133
632 0 1 97.143028 23.652658 126.608414
633 0 1 97.127464 21.783367 128.313614
634 0 1 95.488846 23.636284 128.385712
635 0 1 99.071281 21.618357 126.875137
636 0 1 0.779853 23.644329 126.710480
637 0 1 0.741538 21.802830 128.527878
638 0 1 98.937767 23.569382 128.422775
639 0 1 2.440499 21.798695 126.865723
640 0 1 4.224023 23.581984 126.888519
641 0 1 4.171129 21.748585 128.659363
642 0 1 2.389286 23.723347 128.549423
643 0 1 5.921644 21.924017 126.855469
644 0 1 7.557087 23.932096 126.869659
645 0 1 7.692168 21.970591 128.483200
646 0 1 5.857666 23.677637 128.658035
647 0 1 9.364203 22.198400 126.761612
648 0 1 11.148623 24.004635 126.858795
649 0 1 11.109466 22.085545 128.425934
650 0 1 9.381341 23.880806 128.561020
651 0 1 12.993452 22.210880 126.755249
652 0 1 14.547806 24.144541 126.675110
653 0 1 14.631747 22.310368 128.501190
654 0 1 12.817980 23.961506 128.594650
655 0 1 16.370504 22.286150 126.670395
656 0 1 18.073629 23.891563 126.454773
657 0 1 18.309254 22.165066 128.351242
658 0 1 16.427917 24.043186 128.326126
659 0 1 20.050388 22.333534 126.460037
660 0 1 19.934822 23.837315 128.430725
661 0 1 95.399864 23.514893 124.906311
662 0 1 97.154060 25.402216 128.483826
663 0 1 98.892532 25.475786 126.743347
664 0 1 0.570700 25.545303 128.477875
665 0 1 2.463105 25.406034 126.705429
666 0 1 4.169338 25.538345 128.579697
667 0 1 5.804533 25.547678 126.694763
668 0 1 7.532793 25.587891 128.626648
669 0 1 9.224535 25.597015 126.732727
670 0 1 10.977571 25.744400 128.567810
671 0 1 12.850800 25.839020 126.820358
672 0 1 14.537063 25.637369 128.659012
673 0 1 16.375277 25.886858 126.899124
674 0 1 18.192852 25.710373 128.475403
675 0 1 19.830067 25.790554 126.758942
676 0 1 95.937889 0.219171 130.047531
677 0 1 97.666107 2.081132 129.941040
678 0 1 97.775604 0.364000 131.796600
679 0 1 95.930908 2.056281 131.704926
680 0 1 99.533546 0.393747 129.897095
681 0 1 1.294645 2.128928 129.904846
682 0 1 1.317212 0.282658 131.759628
683 0 1 99.581726 2.094706 131.733948
684 0 1 3.121941 0.469628 129.962585
685 0 1 4.760420 2.231000 130.088165
686 0 1 4.971126 0.648796 131.819016
687 0 1 2.892173 2.159772 131.771240
688 0 1 4.863334 0.524168 128.307404
689 0 1 8.248775 2.403358 130.153885
690 0 1 6.610553 0.483223 130.122879
691 0 1 6.512634 2.440337 131.868439
692 0 1 10.120594 0.611607 130.009369
693 0 1 11.802582 2.595273 130.077408
694 0 1 11.942123 0.722276 131.674210
695 0 1 10.121300 2.427912 131.756805
696 0 1 13.679706 0.844333 130.037155
697 0 1 15.460094 2.771229 130.009384
698 0 1 15.504609 0.880688 131.707794
699 0 1 13.752016 2.665419 131.678604
700 0 1 15.842895 0.684446 128.975616
701 0 1 17.775061 2.525605 129.244461
702 0 1 17.697697 0.710566 130.802856
703 0 1 17.143957 2.933453 131.714233
704 0 1 20.058819 1.787905 128.887283
705 0 1 19.702354 2.520730 131.123306
706 0 1 95.783897 3.821719 129.843231
707 0 1 97.570450 5.582325 129.950180
708 0 1 97.645302 3.836056 131.649750
709 0 1 95.887238 5.592352 131.684860
710 0 1 99.413467 3.910758 129.947586
711 0 1 1.162712 5.663683 130.061966
712 0 1 1.114975 3.962666 131.789490
713 0 1 99.406616 5.741513 131.666000
714 0 1 2.989960 3.884834 129.984070
715 0 1 4.548158 5.809545 129.961060
716 0 1 4.655629 3.987395 131.707520
717 0 1 2.892290 5.757783 131.700928
718 0 1 6.347051 4.124783 129.962662
719 0 1 8.069644 6.015087 129.924911
720 0 1 8.217085 4.255376 131.732315
721 0 1 6.278625 5.893420 131.694733
722 0 1 9.906282 4.262072 130.022156
723 0 1 11.590967 6.171803 129.904221
724 0 1 11.769818 4.338128 131.757309
725 0 1 9.895201 6.092170 131.747833
726 0 1 13.556478 4.409952 130.003906
727 0 1 15.112480 6.397288 129.832794
728 0 1 15.373111 4.561597 131.779709
729 0 1 13.465461 6.268536 131.725266
730 0 1 16.876316 4.722950 129.887009
731 0 1 18.599041 6.431334 129.697449
732 0 1 18.841423 4.691436 131.444580
733 0 1 16.939425 6.507720 131.649307
734 0 1 19.926285 4.465706 129.368790
735 0 1 20.330549 6.508919 131.463135
736 0 1 95.809700 7.312249 129.872925
737 0 1 97.456093 9.259212 129.926712
738 0 1 97.510864 7.406722 131.699509
739 0 1 95.624191 9.020976 131.682358
740 0 1 99.192520 7.480543 129.921036
741 0 1 1.045271 9.293392 129.966354
742 0 1 1.221729 7.397494 131.806274
743 0 1 99.147499 9.295045 131.752533
744 0 1 2.816552 7.462605 129.965607
745 0 1 4.608481 9.269145 129.963196
746 0 1 4.635716 7.644038 131.580978
747 0 1 2.740471 9.200244 131.698975
748 0 1 6.386467 7.716817 129.964523
749 0 1 8.165342 9.562708 130.041275
750 0 1 8.055525 7.705770 131.709824
751 0 1 6.380907 9.537252 131.709045
752 0 1 9.815327 7.767571 130.019394
753 0 1 11.506875 9.641830 129.972061
754 0 1 11.612247 7.921730 131.689682
755 0 1 9.746735 9.494709 131.842255
756 0 1 13.282665 7.936446 129.949326
757 0 1 14.977105 9.773341 129.858261
758 0 1 15.186141 8.006793 131.564178
759 0 1 13.295552 9.583943 131.713425
760 0 1 16.804502 8.138938 129.698212
761 0 1 18.443014 9.879853 129.643417
762 0 1 18.414860 8.107598 131.543518
763 0 1 16.807392 9.806890 131.619263
764 0 1 20.160007 8.181527 129.664810
765 0 1 20.178978 9.874294 131.523270
766 0 1 95.492584 10.734791 129.955856
767 0 1 97.456657 12.743139 130.028198
768 0 1 97.435379 11.069912 131.630219
769 0 1 95.608131 14.478214 129.921143
770 0 1 99.196640 10.942101 129.924225
771 0 1 0.813380 12.794882 130.051254
772 0 1 0.922796 10.986073 131.779984
773 0 1 99.143021 12.786060 131.835144
774 0 1 2.725683 11.104261 130.160583
775 0 1 4.438916 12.985684 129.980362
776 0 1 4.392982 11.169967 131.752945
777 0 1 2.636583 12.841796 131.752777
778 0 1 6.321599 11.319469 130.055771