LAMMPS data file via MDAnalysis

       49364  atoms
           0  bonds
           0  angles
           0  dihedrals
           0  impropers

           2  atom types
           0  bond types
           0  angle types
           0  dihedral types
           0  improper types

0.000000 100.000000 xlo xhi
0.000000 100.000000 ylo yhi
0.000000 137.556488 zlo zhi


Masses

1 58.710000
2 15.999000

Atoms

1 0 1 92.714912 99.604172 115.158501
2 0 1 97.478111 2.519810 116.207550
3 0 1 96.303032 1.999041 118.009010
4 0 1 93.888062 3.938401 120.803810
5 0 1 97.984222 0.422844 117.943954
6 0 1 99.161133 2.725592 117.824577
7 0 1 99.532295 0.544596 119.593948
8 0 1 97.868340 2.376936 119.569580
9 0 1 0.911049 0.871372 117.856354
10 0 1 2.857092 2.027879 116.676674
11 0 1 2.852133 1.005794 119.444794
12 0 1 1.288143 2.738937 119.315735
13 0 1 6.556577 0.394384 117.131096
14 0 1 12.342016 1.408760 117.122467
15 0 1 8.853738 1.601734 116.356514
16 0 1 4.892129 1.960415 118.506157
17 0 1 7.835329 96.644432 117.131012
18 0 1 12.393218 2.738786 114.983643
19 0 1 7.848728 2.303703 118.223396
20 0 1 6.325831 3.780315 119.299316
21 0 1 14.863052 1.907348 116.339394
22 0 1 15.870039 4.783691 115.628937
23 0 1 15.519243 4.050312 117.731865
24 0 1 13.209613 3.600914 117.015892
25 0 1 16.974403 0.250980 116.005272
26 0 1 17.221695 2.847699 115.142311
27 0 1 19.435907 4.079132 114.100296
28 0 1 18.031040 4.205578 117.163887
29 0 1 20.403553 1.169057 114.992744
30 0 1 22.515423 7.460330 114.516685
31 0 1 94.176880 3.932952 118.055740
32 0 1 96.673271 5.692868 116.857468
33 0 1 95.900482 4.095154 119.109253
34 0 1 93.717499 5.737203 119.225151
35 0 1 99.433235 5.657077 117.210182
36 0 1 0.133785 9.812654 117.078102
37 0 1 99.493843 4.289824 119.402328
38 0 1 97.806969 5.782392 119.083549
39 0 1 1.362285 4.115678 117.385605
40 0 1 2.849720 6.059612 117.354683
41 0 1 3.438581 4.100882 118.978981
42 0 1 1.317760 5.873620 119.036209
43 0 1 4.117792 4.097160 116.426659
44 0 1 5.191393 5.634865 117.589493
45 0 1 6.475905 3.131548 116.499695
46 0 1 5.632909 7.581228 118.900063
47 0 1 10.012009 3.176138 118.058098
48 0 1 9.015109 6.645709 116.245422
49 0 1 8.620848 5.064192 119.290665
50 0 1 7.981968 7.724359 118.648499
51 0 1 11.373966 5.367332 117.094055
52 0 1 13.277195 6.688057 115.212677
53 0 1 14.060840 5.975033 117.459160
54 0 1 10.114040 7.009501 118.890648
55 0 1 18.168060 5.692223 115.261856
56 0 1 17.530388 8.120060 116.619667
57 0 1 16.494814 6.275949 117.588432
58 0 1 14.927416 5.832933 119.658104
59 0 1 20.491346 5.319688 115.740807
60 0 1 23.714808 6.320281 117.879066
61 0 1 93.781395 7.176036 117.584862
62 0 1 94.684502 9.504988 117.691788
63 0 1 95.825699 7.345089 118.861313
64 0 1 92.012154 7.381677 119.077110
65 0 1 97.883919 7.635866 117.371834
66 0 1 99.529411 11.357964 119.051468
67 0 1 99.421440 7.831851 118.977921
68 0 1 97.457275 9.423028 119.327232
69 0 1 1.372370 7.201355 115.792946
70 0 1 2.258977 9.433557 117.546600
71 0 1 3.076494 7.820205 119.222946
72 0 1 1.026944 9.519414 119.257614
73 0 1 4.037875 8.259389 117.071190
74 0 1 2.557136 10.248768 115.587578
75 0 1 6.805261 9.586158 117.891861
76 0 1 4.461892 9.922785 118.763260
77 0 1 6.545660 9.921712 115.582520
78 0 1 7.783540 11.765694 116.817215
79 0 1 10.855517 9.174956 118.333504
80 0 1 8.778040 10.387377 118.814102
81 0 1 11.066067 7.707628 116.666504
82 0 1 12.756031 9.670427 116.848106
83 0 1 12.383744 7.184569 118.712158
84 0 1 10.366462 11.372495 117.543205
85 0 1 14.755806 8.043531 118.186424
86 0 1 14.944694 10.804160 117.939484
87 0 1 16.620377 7.509935 119.613045
88 0 1 13.116264 9.476733 118.984024
89 0 1 18.995018 6.574841 117.503883
90 0 1 17.990267 9.322262 119.830589
91 0 1 92.811134 10.967829 116.311531
92 0 1 93.349022 13.474863 116.856689
93 0 1 95.726776 11.405543 119.437195
94 0 1 95.257439 13.931826 119.015633
95 0 1 96.955460 11.849555 117.526253
96 0 1 98.450867 14.536255 115.298508
97 0 1 99.461021 12.675299 116.790161
98 0 1 97.740662 13.116812 119.233673
99 0 1 1.962933 12.890710 115.774460
100 0 1 3.871509 13.989853 115.193436
101 0 1 2.505135 11.483727 119.339333
102 0 1 0.298968 13.810900 118.786179
103 0 1 7.388949 16.808399 117.251518
104 0 1 6.473827 13.337818 117.961609
105 0 1 3.174651 11.791223 117.304634
106 0 1 4.086282 14.122640 117.334000
107 0 1 5.453647 11.421729 117.109489
108 0 1 4.585960 11.663699 115.193405
109 0 1 8.710251 12.937415 119.011353
110 0 1 6.650818 11.486459 119.195389
111 0 1 9.063841 9.338122 116.488815
112 0 1 10.392051 9.171432 113.905350
113 0 1 13.108037 11.902394 118.753075
114 0 1 11.187143 13.360592 118.887054
115 0 1 13.868398 12.709979 116.082451
116 0 1 15.662301 14.744517 117.492645
117 0 1 15.512185 12.834713 118.740578
118 0 1 13.477810 13.908938 117.734581
119 0 1 17.698500 12.341258 118.032387
120 0 1 17.456678 14.962217 118.875908
121 0 1 94.760368 15.450055 117.468742
122 0 1 96.166069 15.724665 115.213524
123 0 1 96.655281 16.143248 118.943565
124 0 1 94.075500 16.393366 119.437767
125 0 1 97.241966 14.204249 117.312706
126 0 1 97.603485 16.624977 116.775360
127 0 1 98.922272 15.501956 118.289055
128 0 1 99.123947 17.861958 118.736740
129 0 1 1.932042 15.124383 116.992622
130 0 1 1.086604 16.152079 119.119911
131 0 1 4.559002 12.873582 119.261047
132 0 1 2.628133 14.118526 119.130615
133 0 1 4.081745 15.979474 115.707039
134 0 1 5.219773 18.131817 118.708679
135 0 1 5.631774 15.447010 118.697388
136 0 1 3.485254 16.382732 118.563400
137 0 1 9.749408 16.739111 118.312477
138 0 1 8.947175 14.513535 117.355560
139 0 1 8.018399 15.355113 119.277618
140 0 1 7.910347 17.567892 119.846649
141 0 1 7.206468 13.752196 114.820053
142 0 1 11.734182 13.599564 116.205536
143 0 1 11.520592 15.529899 117.532394
144 0 1 10.569308 18.695320 118.993355
145 0 1 13.350439 15.893331 115.677429
146 0 1 15.552207 19.078012 117.324272
147 0 1 16.178856 16.982494 118.453064
148 0 1 11.869222 16.986588 119.439125
149 0 1 18.474226 17.722610 116.283989
150 0 1 16.939552 19.356356 119.213287
151 0 1 93.652740 18.385036 117.883308
152 0 1 96.158424 19.773891 117.504707
153 0 1 95.695274 18.358429 119.326683
154 0 1 93.880699 20.482876 119.123108
155 0 1 95.411522 17.290483 116.916153
156 0 1 97.421684 20.672901 115.303413
157 0 1 98.564018 19.660767 117.080246
158 0 1 97.588043 20.110420 119.268509
159 0 1 99.888947 18.903419 115.290787
160 0 1 0.325799 23.156456 117.410233
161 0 1 0.198166 21.485588 115.987137
162 0 1 99.038879 22.261887 119.293030
163 0 1 2.803832 19.961582 117.697510
164 0 1 4.699617 22.824770 119.216583
165 0 1 4.163133 20.613285 119.676323
166 0 1 1.834829 18.295448 119.086617
167 0 1 7.945973 21.204834 118.610054
168 0 1 14.835983 18.996063 121.237068
169 0 1 9.241203 19.422194 120.968872
170 0 1 8.748135 21.928272 120.685188
171 0 1 10.962757 15.661013 115.162376
172 0 1 10.838838 18.374746 116.645378
173 0 1 10.459238 20.968082 119.405106
174 0 1 11.677896 22.085224 117.842094
175 0 1 12.940639 17.848200 117.278252
176 0 1 13.780191 20.451805 116.904404
177 0 1 14.812236 20.529196 119.504524
178 0 1 12.556944 19.904963 119.027916
179 0 1 15.857096 21.601254 116.822731
180 0 1 17.967068 22.610825 117.358925
181 0 1 94.288551 21.349245 116.954124
182 0 1 96.410675 23.234756 116.506874
183 0 1 96.001030 22.039600 118.767586
184 0 1 93.432114 25.297096 118.822777
185 0 1 98.647797 23.461395 115.567688
186 0 1 0.560356 25.834011 117.635773
187 0 1 98.129814 21.810682 117.272957
188 0 1 97.944801 24.011784 118.362900
189 0 1 0.766825 27.679512 119.737480
190 0 1 2.996583 25.954283 116.682465
191 0 1 2.305594 22.020536 118.965706
192 0 1 0.684730 24.094090 119.412331
193 0 1 4.151513 22.088879 117.242470
194 0 1 2.855166 24.024385 118.062782
195 0 1 4.048934 22.170986 121.371666
196 0 1 2.553588 25.967575 119.218056
197 0 1 7.346195 23.630657 119.294891
198 0 1 9.193323 23.810314 117.214493
199 0 1 10.010532 23.544624 119.532158
200 0 1 9.277844 26.007050 119.569443
201 0 1 12.066253 22.280249 115.523064
202 0 1 11.580817 25.742830 118.896469
203 0 1 12.738115 23.594624 119.351196
204 0 1 10.758672 28.226341 119.356766
205 0 1 14.074503 22.015909 118.301971
206 0 1 14.578235 24.303415 116.897018
207 0 1 16.617693 21.991037 119.379570
208 0 1 14.949492 24.764975 119.236160
209 0 1 17.170183 23.909407 115.745651
210 0 1 18.018999 24.237646 119.391327
211 0 1 92.004288 27.204420 115.718788
212 0 1 97.156731 28.444704 119.266006
213 0 1 95.352585 26.795906 118.727905
214 0 1 99.037544 25.978998 119.380135
215 0 1 1.643226 24.504681 115.418144
216 0 1 0.014439 28.449686 117.799370
217 0 1 99.726364 30.861727 117.478889
218 0 1 5.171400 24.921980 119.113579
219 0 1 7.147346 26.337694 118.467659
220 0 1 8.848351 28.486700 118.058777
221 0 1 9.234295 27.228085 114.868561
222 0 1 13.326811 26.679562 119.888458
223 0 1 16.710625 26.487024 119.580055
224 0 1 17.669699 28.725176 119.192215
225 0 1 16.786655 25.319817 117.661980
226 0 1 94.227203 0.437894 121.140312
227 0 1 95.868370 2.269043 120.907806
228 0 1 95.896866 0.599819 122.856697
229 0 1 94.098991 2.298623 122.664795
230 0 1 96.981178 98.419991 116.731941
231 0 1 99.535324 2.483992 121.133102
232 0 1 97.552101 0.418082 120.976601
233 0 1 97.608528 2.333029 122.603737
234 0 1 1.316775 0.837808 121.326546
235 0 1 3.040763 2.618239 121.128471
236 0 1 3.108751 0.851612 122.983589
237 0 1 1.226536 2.530137 122.866806
238 0 1 4.809009 0.946078 121.170113
239 0 1 6.750374 2.530969 121.185875
240 0 1 6.472585 0.875871 123.107674
241 0 1 4.784322 2.578287 122.901009
242 0 1 6.610970 0.712764 119.485016
243 0 1 8.335747 4.457789 121.338867
244 0 1 8.455013 0.692637 121.554939
245 0 1 8.250597 2.645613 122.899223
246 0 1 8.904263 2.486238 120.061584
247 0 1 13.234427 4.251360 119.188530
248 0 1 12.808674 2.133740 121.258415
249 0 1 10.508613 2.597023 121.663490
250 0 1 14.218260 2.206836 118.995880
251 0 1 16.301174 3.519254 119.739700
252 0 1 16.559732 2.138018 121.609871
253 0 1 14.545153 3.903981 121.181450
254 0 1 18.702440 2.575068 119.114540
255 0 1 20.006958 2.345613 121.386909
256 0 1 91.749657 5.573519 120.759811
257 0 1 95.745323 5.797914 120.732262
258 0 1 95.773109 4.042718 122.522438
259 0 1 93.848785 5.757755 122.347755
260 0 1 97.609421 4.180846 120.877739
261 0 1 99.368507 6.033062 120.929398
262 0 1 99.309799 4.369873 122.664391
263 0 1 97.386734 5.915503 122.624207
264 0 1 1.158224 4.246609 121.122467
265 0 1 3.048426 5.930497 120.941757
266 0 1 2.977848 4.347850 122.785202
267 0 1 1.067158 6.026233 122.676529
268 0 1 4.859642 4.176927 121.029167
269 0 1 8.264072 7.211034 120.814613
270 0 1 6.442391 4.404378 122.838753
271 0 1 4.690411 6.141858 122.774315
272 0 1 6.215128 6.119412 120.860138
273 0 1 10.277637 6.032258 121.332115
274 0 1 10.036506 4.334359 123.074409
275 0 1 8.316446 6.144497 122.916664
276 0 1 10.982703 4.795515 119.321297
277 0 1 12.605000 6.079785 120.525345
278 0 1 12.124456 4.334527 121.648842
279 0 1 11.862278 6.312737 122.919838
280 0 1 17.745039 5.339966 119.413940
281 0 1 16.504053 5.597914 121.378746
282 0 1 18.284866 3.911046 121.226974
283 0 1 14.193231 6.159795 122.170471
284 0 1 20.117476 4.674724 119.335495
285 0 1 18.041840 7.424560 121.540031
286 0 1 93.828873 7.601842 120.710449
287 0 1 95.672089 9.307532 120.686882
288 0 1 95.638435 7.588309 122.473946
289 0 1 93.864082 9.399641 122.536606
290 0 1 97.445419 7.551317 120.791176
291 0 1 99.235130 9.446338 120.862045
292 0 1 99.333237 7.588874 122.572754
293 0 1 97.445625 9.366115 122.538162
294 0 1 1.236217 7.697059 120.786072
295 0 1 2.870878 9.653042 120.891075
296 0 1 2.872550 7.729625 122.570129
297 0 1 1.041875 9.487434 122.542160
298 0 1 4.795333 8.150040 120.954239
299 0 1 6.849126 9.322079 120.308624
300 0 1 6.358049 7.798344 122.654404
301 0 1 4.701397 9.619741 122.708778
302 0 1 9.344763 9.154716 120.603676
303 0 1 10.978465 10.904620 119.793983
304 0 1 9.935751 7.882066 122.791496
305 0 1 7.983200 9.741739 122.631599
306 0 1 11.575062 8.371659 120.767891
307 0 1 13.243147 10.300449 121.047455
308 0 1 13.250466 8.365422 122.631195
309 0 1 11.482891 9.955002 122.640327
310 0 1 14.061240 7.872146 120.482704
311 0 1 15.660982 9.689899 119.987358
312 0 1 15.798987 8.041055 122.144257
313 0 1 15.029888 10.262100 122.674492
314 0 1 17.421896 9.851638 122.022034
315 0 1 19.230034 11.494886 121.831573
316 0 1 93.885040 11.168499 120.923035
317 0 1 95.718697 12.948535 121.088066
318 0 1 95.685143 11.161566 122.569916
319 0 1 93.799980 12.872205 122.573296
320 0 1 97.615318 11.288882 120.896439
321 0 1 99.211479 13.029112 121.019882
322 0 1 99.111816 11.229247 122.761925
323 0 1 97.404549 12.978449 122.726036
324 0 1 0.996872 11.253080 121.014275
325 0 1 2.729346 12.997129 121.117409
326 0 1 2.936730 11.265973 122.687737
327 0 1 0.923082 12.998011 122.756363
328 0 1 4.854499 11.141257 120.814957
329 0 1 6.481599 13.697698 120.488739
330 0 1 6.297865 11.478647 122.664276
331 0 1 4.548325 13.137665 122.651787
332 0 1 8.306447 11.445444 120.997871
333 0 1 9.773293 13.456688 121.057404
334 0 1 9.854522 11.715426 122.714165
335 0 1 7.948813 13.434148 122.673439
336 0 1 12.002192 12.330159 121.070190
337 0 1 13.959558 14.121696 120.203651
338 0 1 13.350765 12.031889 122.930054
339 0 1 11.581112 13.633930 122.901741
340 0 1 14.874072 11.938368 120.979744
341 0 1 16.803610 13.879215 120.943207
342 0 1 16.794350 12.097695 122.635185
343 0 1 15.061397 13.750463 122.629997
344 0 1 17.248814 11.635880 120.274818
345 0 1 18.546320 13.903487 122.734947
346 0 1 93.945358 14.577854 120.954041
347 0 1 95.684204 16.632044 120.969086
348 0 1 95.650688 14.733438 122.620323
349 0 1 93.789047 16.658739 122.432472
350 0 1 97.379845 14.701105 120.920319
351 0 1 99.089897 16.218880 120.665962
352 0 1 99.156944 14.682359 122.744560
353 0 1 97.432640 16.667664 122.587654
354 0 1 0.968307 14.691513 120.921783
355 0 1 2.535689 16.716974 120.840843
356 0 1 2.592834 14.945072 122.628700
357 0 1 0.681264 16.498690 122.678139
358 0 1 4.284636 14.936248 120.810875
359 0 1 5.952194 16.849054 120.793480
360 0 1 6.011723 15.160647 122.593948
361 0 1 4.126203 16.799501 122.641617
362 0 1 7.990294 15.489290 121.415512
363 0 1 9.905917 16.892258 120.794296
364 0 1 9.908642 15.258936 122.673912
365 0 1 7.833557 17.489471 122.469719
366 0 1 11.876856 14.937115 120.858086
367 0 1 13.899967 15.980912 118.623314
368 0 1 13.355786 15.328940 122.641060
369 0 1 13.491877 16.934940 121.036674
370 0 1 15.543275 15.791940 120.633347
371 0 1 16.899372 17.579691 120.802322
372 0 1 16.845270 15.606620 122.676407
373 0 1 15.178380 17.138454 122.787140
374 0 1 18.529444 15.782821 120.987610
375 0 1 18.516375 17.519615 122.775429
376 0 1 93.655685 18.449829 120.725067
377 0 1 95.567413 20.344318 120.846001
378 0 1 95.546394 18.490458 122.397026
379 0 1 93.679214 22.077610 120.759377
380 0 1 97.563103 18.395115 120.890884
381 0 1 99.170303 20.384348 120.893944
382 0 1 99.045898 18.363462 122.788803
383 0 1 97.311180 20.370874 122.549522
384 0 1 0.302854 18.226015 120.817947
385 0 1 0.408347 20.287376 118.610115
386 0 1 2.197817 18.430714 122.484222
387 0 1 0.695464 20.147684 122.709114
388 0 1 3.993918 18.551271 120.718994
389 0 1 6.224108 21.579863 120.679207
390 0 1 5.616976 18.584085 122.618500
391 0 1 3.918776 20.277111 122.549911
392 0 1 6.671718 19.197502 120.825951
393 0 1 11.252399 22.786091 121.177078
394 0 1 11.520741 17.028124 122.724510
395 0 1 7.705005 20.637112 122.514969
396 0 1 11.770109 18.908791 121.067574
397 0 1 14.225677 18.186760 119.127823
398 0 1 13.156153 18.929213 122.825150
399 0 1 11.208217 20.769922 122.698540
400 0 1 16.644432 20.856516 121.204308
401 0 1 18.573971 19.211988 120.908684
402 0 1 16.817892 19.110214 122.690941
403 0 1 14.708125 20.888018 122.748848
404 0 1 18.656734 20.963148 119.357513
405 0 1 18.563301 20.868004 122.777290
406 0 1 93.835144 22.972986 118.396019
407 0 1 95.206902 23.909836 120.986839
408 0 1 95.408745 22.154152 122.491539
409 0 1 91.802513 23.988878 120.604912
410 0 1 97.219719 22.171978 120.868240
411 0 1 98.883591 24.069113 120.825249
412 0 1 99.078598 22.097504 122.704659
413 0 1 97.049728 24.002813 122.573311
414 0 1 0.718459 22.212065 120.907867
415 0 1 2.722143 23.983789 120.869850
416 0 1 2.302281 22.166059 122.733803
417 0 1 0.699123 24.041975 122.633957
418 0 1 2.029330 20.179258 120.691719
419 0 1 4.226663 25.774170 121.155861
420 0 1 5.911439 22.344624 122.885994
421 0 1 4.002133 24.103802 122.877014
422 0 1 5.902950 24.063532 121.217438
423 0 1 9.339842 24.403561 121.320427
424 0 1 9.263809 22.559011 122.794266
425 0 1 7.531390 24.261158 122.910706
426 0 1 12.987557 21.011770 121.028915
427 0 1 12.995207 24.741179 121.212761
428 0 1 13.080830 22.770676 122.716110
429 0 1 11.192778 24.524469 122.811905
430 0 1 14.690369 22.730677 120.833633
431 0 1 16.589664 24.582937 121.082069
432 0 1 16.389935 22.740559 122.788239
433 0 1 14.726874 24.583599 122.762390
434 0 1 18.374567 22.720490 121.203743
435 0 1 18.277323 24.587076 122.884949
436 0 1 93.368752 25.962099 121.094086
437 0 1 95.290749 25.705618 122.646278
438 0 1 97.009064 25.713949 120.699554
439 0 1 98.763939 25.800253 122.590157
440 0 1 0.956964 25.699293 121.024902
441 0 1 2.399234 25.767509 122.843559
442 0 1 2.652562 27.742264 120.953339
443 0 1 5.790944 26.042698 122.951256
444 0 1 7.252915 26.059717 121.016167
445 0 1 9.180913 26.152189 122.837601
446 0 1 11.156682 26.355703 121.072647
447 0 1 12.905628 26.318039 122.905884
448 0 1 14.964998 26.569677 121.153152
449 0 1 16.426725 26.298040 122.984299
450 0 1 18.166578 26.432055 121.239723
451 0 1 94.048401 0.481926 124.530693
452 0 1 95.764519 2.342373 124.387047
453 0 1 95.830986 0.639392 126.203163
454 0 1 93.868195 2.332043 126.028008
455 0 1 97.576195 0.612780 124.488846
456 0 1 99.339249 2.553241 124.375290
457 0 1 99.381851 0.701775 126.194839
458 0 1 97.649002 2.461166 126.229271
459 0 1 99.389557 0.655160 122.738022
460 0 1 2.870997 2.629113 124.571861
461 0 1 1.091362 0.643923 124.572609
462 0 1 1.071220 2.614233 126.245583
463 0 1 4.670326 0.900105 124.696114
464 0 1 6.572502 2.689176 124.746765
465 0 1 6.485051 0.908914 126.462227
466 0 1 4.760828 2.673386 126.349792
467 0 1 8.335695 0.800863 124.673668
468 0 1 9.940612 2.608524 124.785378
469 0 1 10.086847 0.867597 126.530388
470 0 1 8.238660 2.670747 126.461525
471 0 1 10.252713 0.782582 123.231361
472 0 1 12.041343 2.687464 123.614868
473 0 1 12.103260 0.832324 125.044975
474 0 1 11.866534 2.812251 126.257416
475 0 1 14.536786 2.219596 122.985664
476 0 1 16.347654 3.904855 123.092346
477 0 1 16.506861 2.055145 124.623238
478 0 1 14.052790 2.548180 125.296776
479 0 1 18.319008 2.176288 123.079468
480 0 1 18.203968 3.815328 124.736046
481 0 1 93.850830 4.067471 124.220383
482 0 1 95.671318 5.713537 124.205780
483 0 1 95.761269 4.037901 126.028519
484 0 1 93.851196 5.802218 125.946426
485 0 1 97.438202 4.066104 124.355171
486 0 1 99.233711 6.006521 124.377472
487 0 1 99.205429 4.311787 126.056717
488 0 1 97.415009 5.928650 126.024338
489 0 1 1.064083 4.348942 124.463158
490 0 1 2.901994 6.104904 124.469864
491 0 1 2.841330 4.444608 126.274689
492 0 1 0.992943 6.091851 126.157776
493 0 1 4.703948 4.454775 124.557533
494 0 1 6.439670 6.198838 124.534195
495 0 1 6.390048 4.496916 126.306862
496 0 1 4.569036 6.265867 126.208473
497 0 1 8.209865 4.438278 124.687263
498 0 1 10.026834 6.309504 124.719124
499 0 1 9.883169 4.545173 126.377762
500 0 1 8.105218 6.288790 126.273071
501 0 1 11.703992 4.636438 124.756516
502 0 1 13.558448 6.553225 124.622025
503 0 1 13.503250 4.759371 126.250198
504 0 1 11.682516 6.482814 126.354683
505 0 1 13.746239 4.421022 123.732407
506 0 1 15.806931 6.111722 123.836685
507 0 1 15.830514 4.337133 125.484543
508 0 1 15.160042 6.575898 126.236794
509 0 1 18.086147 5.574584 123.191879
510 0 1 17.537428 6.146813 125.547813
511 0 1 93.837181 7.543172 124.118782
512 0 1 95.651649 9.396484 124.395073
513 0 1 95.670647 7.571979 126.044937
514 0 1 93.845627 9.412591 126.112762
515 0 1 97.379402 7.687817 124.283791
516 0 1 99.216148 9.417499 124.339088
517 0 1 99.132484 7.772935 126.282448
518 0 1 97.422577 9.451252 126.127335
519 0 1 1.002878 7.781370 124.451561
520 0 1 2.831775 9.367413 124.409508
521 0 1 2.851593 7.867534 126.152130
522 0 1 0.874769 9.567035 126.166550
523 0 1 4.751302 7.875343 124.485207
524 0 1 6.476223 9.806734 124.422607
525 0 1 6.375192 7.983616 126.253960
526 0 1 4.627233 9.564403 126.174049
527 0 1 8.176521 8.050832 124.464981
528 0 1 9.792868 9.902356 124.478157
529 0 1 9.922805 8.092515 126.363625
530 0 1 8.150640 9.716334 126.227020
531 0 1 11.608217 8.210424 124.424507
532 0 1 13.291556 10.026449 124.434982
533 0 1 13.534822 8.335862 126.241241
534 0 1 11.593615 9.944470 126.281639
535 0 1 15.225697 8.446473 124.382332
536 0 1 16.952087 10.311096 124.419785
537 0 1 16.877121 8.513191 126.196075
538 0 1 15.161116 10.172338 126.168098
539 0 1 17.476082 7.960353 123.890450
540 0 1 18.744835 10.280841 126.249878
541 0 1 93.795456 11.234080 124.303810
542 0 1 95.605774 12.965774 124.310509
543 0 1 95.528465 11.372425 126.185982
544 0 1 93.786758 12.981856 125.989746
545 0 1 97.331917 11.129396 124.340271
546 0 1 99.225639 12.976906 124.464592
547 0 1 99.137962 11.194427 125.994759
548 0 1 97.320984 12.953464 126.044624
549 0 1 1.018493 11.238411 124.390991
550 0 1 2.736550 13.156673 124.374588
551 0 1 2.733138 11.337170 126.014145
552 0 1 0.953216 13.125242 126.159607
553 0 1 4.514928 11.496662 124.481239
554 0 1 6.215461 13.339598 124.514908
555 0 1 6.292509 11.604840 126.223320
556 0 1 4.314239 13.297729 126.185699
557 0 1 8.047631 11.589552 124.481186
558 0 1 9.724421 13.500758 124.440430
559 0 1 9.695542 11.740029 126.313477
560 0 1 7.876103 13.479783 126.158409
561 0 1 11.494924 11.734132 124.566559
562 0 1 13.273666 13.661292 124.600288
563 0 1 13.284034 11.831036 126.257668
564 0 1 11.378261 13.653702 126.155083
565 0 1 15.079956 11.851611 124.526642
566 0 1 16.755375 13.761651 124.432892
567 0 1 17.014027 11.944975 126.140678
568 0 1 15.110685 13.631336 126.274345
569 0 1 18.717180 11.990438 124.406082
570 0 1 18.523991 13.812541 126.255928
571 0 1 93.742706 14.787305 124.228752
572 0 1 95.508926 16.692192 124.006355
573 0 1 95.482956 14.823394 125.952187
574 0 1 93.708916 18.431759 124.147850
575 0 1 97.243713 14.866156 124.279770
576 0 1 98.982849 16.522236 124.425957
577 0 1 99.010780 14.787392 126.099266
578 0 1 97.104721 16.588116 126.046410
579 0 1 0.758632 14.906026 124.557953
580 0 1 2.442375 16.689274 124.454468
581 0 1 2.464857 14.943358 126.233086
582 0 1 0.668257 16.698439 126.194199
583 0 1 4.298627 15.055677 124.420914
584 0 1 5.934827 16.874044 124.340218
585 0 1 6.076756 15.161850 126.065521
586 0 1 4.210297 16.847075 126.169518
587 0 1 7.804439 15.209594 124.199989
588 0 1 9.528985 17.141813 124.317741
589 0 1 9.655418 15.309828 126.173302
590 0 1 7.762739 16.908398 126.068748
591 0 1 11.465993 15.459002 124.495621
592 0 1 13.237020 17.129164 124.459709
593 0 1 13.177913 15.385673 126.172363
594 0 1 11.335912 17.148701 126.180679
595 0 1 15.069964 15.424780 124.384193
596 0 1 16.817114 17.307486 124.532791
597 0 1 16.828554 15.541487 126.291328
598 0 1 14.956773 17.097458 126.181976
599 0 1 18.596819 15.642145 124.585358
600 0 1 18.478106 17.499905 126.229103
601 0 1 93.573105 20.280397 122.398567
602 0 1 95.457047 20.262712 124.289391
603 0 1 95.406960 18.384228 125.919884
604 0 1 93.669136 20.233915 126.056786
605 0 1 97.078217 18.504496 124.311066
606 0 1 98.856964 20.228399 124.419556
607 0 1 98.864914 18.365723 125.980080
608 0 1 97.112061 20.319073 126.130959
609 0 1 0.651400 18.457443 124.568985
610 0 1 2.422384 20.387127 124.543060
611 0 1 2.470435 18.542038 126.241539
612 0 1 0.596653 20.335938 126.162643
613 0 1 4.072968 18.714626 124.458244
614 0 1 5.966688 20.449827 124.447350
615 0 1 5.912475 18.569824 126.058510
616 0 1 4.220536 20.410574 126.261078
617 0 1 7.690136 18.834461 124.304619
618 0 1 9.508615 20.651205 124.375084
619 0 1 9.630766 18.781116 126.119179
620 0 1 7.718666 20.533703 126.139313
621 0 1 11.293798 18.895144 124.335739
622 0 1 13.036406 20.744436 124.381821
623 0 1 13.153584 18.980055 126.172852
624 0 1 11.246247 20.673496 126.059753
625 0 1 14.818255 18.906290 124.427116
626 0 1 16.614304 20.888517 124.363754
627 0 1 16.578447 19.198145 126.268837
628 0 1 14.728544 20.813782 126.136108
629 0 1 18.459541 19.180887 124.530281
630 0 1 18.337481 20.992428 126.334206
631 0 1 93.679543 21.984161 124.165588
632 0 1 95.332794 23.966938 124.248589
633 0 1 95.312492 21.989010 126.088890
634 0 1 93.533508 23.835459 126.154434
635 0 1 97.058601 22.111685 124.312706
636 0 1 98.911980 23.948856 124.277908
637 0 1 98.809471 22.013954 126.162567
638 0 1 97.085075 23.843597 126.182404
639 0 1 0.650571 22.111423 124.416542
640 0 1 2.381343 23.874723 124.519173
641 0 1 2.342854 22.118973 126.256126
642 0 1 0.523971 23.895760 126.234734
643 0 1 4.149507 22.219505 124.388092
644 0 1 5.863860 24.166323 124.602112
645 0 1 5.896324 22.196667 126.262390
646 0 1 4.046696 23.948870 126.355988
647 0 1 7.619426 22.426497 124.608894
648 0 1 9.301118 24.308935 124.515152
649 0 1 9.329036 22.475008 126.319862
650 0 1 7.567062 24.129372 126.276649
651 0 1 11.275973 22.668625 124.373749
652 0 1 13.024052 24.382864 124.646927
653 0 1 13.016221 22.492006 126.174362
654 0 1 11.073964 24.235086 126.225403
655 0 1 14.705270 22.753468 124.512039
656 0 1 16.417528 24.364143 124.609322
657 0 1 16.494787 22.490561 126.206688
658 0 1 14.773488 24.431200 126.341728
659 0 1 18.248783 22.798174 124.419525
660 0 1 18.127796 24.466970 126.386368
661 0 1 93.398064 23.834244 122.584908
662 0 1 95.369080 25.641281 126.189117
663 0 1 97.177879 25.550028 124.404938
664 0 1 98.839500 25.582787 126.199905
665 0 1 0.495849 25.672806 124.533409
666 0 1 2.225239 25.757057 126.390694
667 0 1 4.000045 25.791990 124.629616
668 0 1 5.764135 25.890177 126.426712
669 0 1 7.513481 26.022873 124.639366
670 0 1 9.243350 25.937742 126.332237
671 0 1 11.088353 26.105295 124.562218
672 0 1 12.811565 26.083523 126.332108
673 0 1 14.692988 26.187149 124.607277
674 0 1 16.460232 26.321661 126.312355
675 0 1 18.143608 26.281792 124.701309
676 0 1 94.020721 0.614697 127.855637
677 0 1 95.695641 2.459736 127.858765
678 0 1 95.784698 0.643431 129.653534
679 0 1 93.984467 2.344351 129.694885
680 0 1 97.594955 0.680268 128.022339
681 0 1 99.178658 2.528776 127.947159
682 0 1 99.327858 0.833100 129.731033
683 0 1 97.434151 2.556730 129.719025
684 0 1 1.195434 0.905997 127.890999
685 0 1 2.881893 2.563829 128.039352
686 0 1 2.921156 0.841765 129.736954
687 0 1 1.029426 2.619781 129.727356
688 0 1 2.937077 0.775412 126.346405
689 0 1 6.387461 2.780547 128.088379
690 0 1 4.733002 0.889357 128.083038
691 0 1 4.666412 2.670160 129.744812
692 0 1 8.201868 0.985602 128.195023
693 0 1 10.063349 2.765424 128.114075
694 0 1 10.163502 0.988900 129.838989
695 0 1 8.236212 2.846009 129.845642
696 0 1 11.829328 0.936149 127.990013
697 0 1 13.589877 2.831124 127.961319
698 0 1 13.486493 1.161463 129.828674
699 0 1 11.784113 2.970096 129.686966
700 0 1 13.912556 0.680880 126.801781
701 0 1 15.771970 2.498676 127.106331
702 0 1 15.664510 0.822802 128.618591
703 0 1 15.298037 2.870763 129.727783
704 0 1 18.136719 1.969134 126.396263
705 0 1 17.541258 2.562819 128.866013
706 0 1 93.943039 4.066128 127.783600
707 0 1 95.499939 5.861149 127.784180
708 0 1 95.599686 4.179815 129.594543
709 0 1 93.753387 5.770550 129.509369
710 0 1 97.395378 4.347981 127.941589
711 0 1 99.217033 5.974668 127.916710
712 0 1 99.031265 4.360464 129.579254
713 0 1 97.325706 5.952886 129.634750
714 0 1 1.012350 4.423380 127.929344
715 0 1 2.803582 6.166806 127.935066
716 0 1 2.854916 4.320120 129.668762
717 0 1 1.015285 6.078325 129.653549
718 0 1 4.598686 4.416658 128.097595
719 0 1 6.321359 6.232662 127.984787
720 0 1 6.319200 4.510134 129.708466
721 0 1 4.505077 6.310589 129.753250
722 0 1 8.129264 4.563126 128.080719
723 0 1 10.006583 6.356602 128.069397
724 0 1 10.041563 4.561644 129.760742
725 0 1 8.174797 6.322133 129.694702
726 0 1 11.885099 4.599836 127.913498
727 0 1 13.427950 6.530239 128.069763
728 0 1 13.423163 4.635693 129.859589
729 0 1 11.811648 6.539043 129.791046
730 0 1 15.168002 4.733366 127.990433
731 0 1 16.851078 6.514806 128.037521
732 0 1 16.875496 4.859967 129.796890
733 0 1 15.126884 6.570228 129.716980
734 0 1 17.480091 4.332816 127.182343
735 0 1 18.703930 6.616846 129.792938
736 0 1 93.788918 7.638589 127.725311
737 0 1 95.494606 9.394136 127.739677
738 0 1 95.560371 7.561470 129.522888
739 0 1 93.767502 9.388665 129.481506
740 0 1 97.308960 7.630331 127.878349
741 0 1 98.991325 9.520292 127.831596
742 0 1 99.097488 7.739039 129.587814
743 0 1 97.276611 9.356153 129.577866
744 0 1 0.976953 7.815144 127.945816
745 0 1 2.809952 9.647388 127.882271
746 0 1 2.725932 7.971276 129.647827
747 0 1 0.904171 9.555968 129.587769
748 0 1 4.583457 7.907027 128.010696
749 0 1 6.262077 9.715928 127.929276
750 0 1 6.380111 8.001021 129.824554
751 0 1 4.514233 9.768576 129.569168
752 0 1 8.222991 8.112921 128.209656
753 0 1 9.863145 10.020207 128.008270
754 0 1 9.950383 8.167745 129.810120
755 0 1 8.103538 9.951178 129.737885
756 0 1 11.809032 8.364785 127.999931
757 0 1 13.429162 10.170669 127.922699
758 0 1 13.484758 8.351064 129.748886
759 0 1 11.614348 10.021754 129.786194
760 0 1 15.195681 8.259704 128.009705
761 0 1 16.917637 10.138745 128.058990
762 0 1 16.819801 8.400800 129.724091
763 0 1 15.120005 10.180996 129.781799
764 0 1 18.641783 8.459600 127.949867
765 0 1 18.490471 10.199211 129.819885
766 0 1 93.789688 11.185166 127.846481
767 0 1 95.439987 13.045780 127.914467
768 0 1 95.545441 11.239002 129.615891
769 0 1 93.651154 14.833077 127.720032
770 0 1 97.255920 11.213742 127.923126
771 0 1 99.067757 12.921706 127.838303
772 0 1 99.073517 11.172719 129.557098
773 0 1 97.226921 12.910907 129.640976
774 0 1 1.026952 11.349154 127.968414
775 0 1 2.619220 13.168678 127.907997
776 0 1 2.808292 11.486166 129.645721
777 0 1 0.689539 13.190298 129.591110