LAMMPS (29 Sep 2021)
  using 1 OpenMP thread(s) per MPI task
Reading data file ...
  orthogonal box = (0.030692611 -0.11146740 0.0000000) to (101.87479 101.51695 530.81251)
  3 by 2 by 16 MPI processor grid
  reading atoms ...
  449770 atoms
  reading velocities ...
  449770 velocities
  read_data CPU = 4.839 seconds
227721 atoms in group g_left
222049 atoms in group g_right

CITE-CITE-CITE-CITE-CITE-CITE-CITE-CITE-CITE-CITE-CITE-CITE-CITE

Your simulation uses code contributions which should be cited:
- @article{cjiang2012
The log file lists these citations in BibTeX format.

CITE-CITE-CITE-CITE-CITE-CITE-CITE-CITE-CITE-CITE-CITE-CITE-CITE

Neighbor list info ...
  update every 1 steps, delay 10 steps, check yes
  max neighbors/atom: 2000, page size: 100000
  master list distance cutoff = 8.28721
  ghost atom cutoff = 8.28721
  binsize = 4.143605, bins = 25 25 129
  3 neighbor lists, perpetual/occasional/extra = 3 0 0
  (1) pair eam/alloy, perpetual, skip from (3)
      attributes: half, newton on
      pair build: skip
      stencil: none
      bin: none
  (2) pair edip/multi, perpetual
      attributes: full, newton on
      pair build: full/bin/atomonly
      stencil: full/bin/3d
      bin: standard
  (3) neighbor class addition, perpetual, half/full from (2)
      attributes: half, newton on
      pair build: halffull/newton
      stencil: none
      bin: none
Setting up Verlet run ...
  Unit style    : metal
  Current step  : 0
  Time step     : 0.00025
Per MPI rank memory allocation (min/avg/max) = 8.089 | 12.69 | 16.82 Mbytes
Step Time Temp Press PotEng KinEng TotEng Volume 
       0            0    2191.1978    21598.645   -2165844.8    127390.12   -2038454.6    5494044.8 
     100        0.025    2190.8046    21839.485     -2165850    127367.26   -2038482.7    5488869.7 
     200         0.05    2190.9378    21644.832   -2165854.4       127375   -2038479.4    5483694.5 
     300        0.075    2190.8841    21822.373     -2165852    127371.88   -2038480.1    5478519.4 
     400          0.1    2190.7605    21411.241   -2165849.5     127364.7   -2038484.9    5473344.3 
     500        0.125    2191.1693    21240.031   -2165858.9    127388.46   -2038470.4    5468169.2 
     600         0.15    2190.8534    21825.614   -2165849.4    127370.09   -2038479.3      5462994 
     700        0.175    2190.5775     21987.99   -2165839.5    127354.05   -2038485.4    5457818.9 
     800          0.2     2190.547    21623.162   -2165836.6    127352.28   -2038484.4    5452643.8 
     900        0.225    2191.3731    21997.933   -2165869.8    127400.31   -2038469.5    5447468.6 
    1000         0.25    2190.9137    21828.109   -2165837.2     127373.6   -2038463.6    5442293.5 
    1100        0.275    2190.8892    21641.601   -2165844.1    127372.18     -2038472    5437118.4 
    1200          0.3    2190.6383    21548.362   -2165854.4    127357.59   -2038496.8    5431943.3 
    1300        0.325     2190.669    21810.806   -2165854.9    127359.38   -2038495.5    5426768.1 
    1400         0.35    2190.9155    21868.048   -2165862.8    127373.71   -2038489.1      5421593 
    1500        0.375    2190.8233    21556.598   -2165855.7    127368.34   -2038487.4    5416417.9 
    1600          0.4    2190.9868    22044.501   -2165863.5    127377.85   -2038485.7    5411242.8 
    1700        0.425    2190.2514    21423.726   -2165842.6     127335.1   -2038507.5    5406067.6 
    1800         0.45    2190.8582    21636.126     -2165880    127370.38   -2038509.6    5400892.5 
    1900        0.475    2190.2924    21622.194   -2165838.4    127337.48   -2038500.9    5395717.4 
    2000          0.5     2190.651    22032.513   -2165850.7    127358.33   -2038492.4    5390542.2 
    2100        0.525    2190.8979    21907.854   -2165863.7    127372.68     -2038491    5385367.1 
    2200         0.55    2190.5566    21884.505   -2165848.9    127352.84     -2038496      5380192 
    2300        0.575    2190.7007    21806.543   -2165874.7    127361.22   -2038513.4    5375016.9 
    2400          0.6    2190.3405    21697.537   -2165857.1    127340.28   -2038516.8    5369841.7 
    2500        0.625    2190.4343    22488.301   -2165867.3    127345.73   -2038521.6    5364666.6 
    2600         0.65    2190.3751    22318.356   -2165851.7    127342.29   -2038509.4    5359491.5 
    2700        0.675    2190.6425    22481.743   -2165849.7    127357.83   -2038491.8    5354316.4 
    2800          0.7    2190.9649    22217.114   -2165864.2    127376.58   -2038487.6    5349141.2 
    2900        0.725    2190.4493    21955.991   -2165854.9     127346.6   -2038508.3    5343966.1 
    3000         0.75    2190.7977    22292.781   -2165870.6    127366.86   -2038503.7      5338791 
    3100        0.775    2190.2673    22012.253   -2165838.4    127336.02   -2038502.4    5333615.8 
    3200          0.8    2190.3971    21850.655   -2165850.1    127343.57   -2038506.5    5328440.7 
    3300        0.825    2190.7089    22103.851   -2165864.5     127361.7   -2038502.8    5323265.6 
    3400         0.85    2190.4909    22016.486   -2165859.5    127349.02   -2038510.4    5318090.5 
    3500        0.875    2190.4553    22045.667     -2165854    127346.95     -2038507    5312915.3 
    3600          0.9    2189.6679    22167.434   -2165820.6    127301.17   -2038519.4    5307740.2 
    3700        0.925    2190.7365    22684.025   -2165881.2     127363.3   -2038517.9    5302565.1 
    3800         0.95    2190.1534    22168.967   -2165837.4     127329.4     -2038508      5297390 
    3900        0.975    2190.3858    22241.973   -2165867.5    127342.91   -2038524.6    5292214.8 
    4000            1    2189.7706    22306.887   -2165839.6    127307.14   -2038532.5    5287039.7 
    4100        1.025    2189.7119    22660.732   -2165836.8    127303.73     -2038533    5281864.6 
    4200         1.05    2190.7404    22089.765   -2165888.7    127363.52   -2038525.1    5276689.4 
    4300        1.075    2189.8492    22902.014   -2165838.3    127311.71   -2038526.6    5271514.3 
    4400          1.1    2189.7748    22148.319   -2165841.4    127307.39     -2038534    5266339.2 
    4500        1.125    2189.8674    22377.373   -2165858.9    127312.77   -2038546.1    5261164.1 
    4600         1.15    2189.8063    22552.581   -2165845.5    127309.22   -2038536.3    5255988.9 
    4700        1.175    2190.3724      22161.1   -2165874.8    127342.13   -2038532.7    5250813.8 
    4800          1.2    2189.7414     22314.67   -2165834.4    127305.44   -2038528.9    5245638.7 
    4900        1.225    2190.2647    22746.593   -2165854.8    127335.87     -2038519    5240463.5 
    5000         1.25    2190.8806    22571.056   -2165879.8    127371.68   -2038508.1    5235288.4 
    5100        1.275     2190.452    22300.678   -2165867.3    127346.76   -2038520.5    5230113.3 
    5200          1.3    2191.0664     22767.47   -2165899.9    127382.48   -2038517.4    5224938.2 
    5300        1.325    2191.9417    22629.941   -2165939.2    127433.37   -2038505.8      5219763 
    5400         1.35    2192.2955    22045.142   -2165959.1    127453.93   -2038505.2    5214587.9 
    5500        1.375    2193.0608    22626.259   -2166011.3    127498.43   -2038512.9    5209412.8 
    5600          1.4     2193.077    23250.251   -2166014.3    127499.37   -2038514.9    5204237.7 
    5700        1.425    2191.9594    24778.497   -2165941.7    127434.39   -2038507.3    5199062.5 
    5800         1.45    2189.3489    26481.125     -2165791    127282.63   -2038508.4    5193887.4 
    5900        1.475    2183.9035    29048.677     -2165489    126966.05     -2038523    5188712.3 
    6000          1.5    2177.4396    32730.073   -2165105.1    126590.25   -2038514.9    5183537.1 
    6100        1.525    2167.5864     36956.11     -2164539    126017.42   -2038521.6      5178362 
    6200         1.55     2155.808    41629.968   -2163861.8    125332.65   -2038529.1    5173186.9 
    6300        1.575    2142.7459    47062.814   -2163117.1    124573.26   -2038543.9    5168011.8 
    6400          1.6     2129.093    52780.188   -2162296.6    123779.52   -2038517.1    5162836.6 
    6500        1.625    2115.4473    58195.935   -2161494.4    122986.19   -2038508.2    5157661.5 
    6600         1.65    2101.3605     63481.74   -2160690.7    122167.23   -2038523.4    5152486.4 
    6700        1.675    2086.8112    68877.169   -2159847.7    121321.37   -2038526.4    5147311.3 
    6800          1.7    2073.0513    73157.204     -2159048    120521.41   -2038526.6    5142136.1 
    6900        1.725     2057.084    77260.183     -2158122    119593.12   -2038528.9      5136961 
    7000         1.75     2042.367    81552.778     -2157277    118737.51   -2038539.5    5131785.9 
    7100        1.775    2027.0553    85122.078   -2156389.9    117847.33   -2038542.6    5126610.7 
    7200          1.8    2012.8069    88044.306   -2155552.8    117018.97   -2038533.9    5121435.6 
    7300        1.825      1998.63     90958.21   -2154739.2    116194.76   -2038544.5    5116260.5 
    7400         1.85    1985.5867    92339.711     -2153995    115436.46   -2038558.5    5111085.4 
    7500        1.875    1973.5877    93020.756   -2153286.9    114738.87     -2038548    5105910.2 
    7600          1.9    1961.5161    94217.492   -2152577.8    114037.07   -2038540.7    5100735.1 
    7700        1.925    1949.9663    94354.652     -2151899    113365.59   -2038533.4      5095560 
    7800         1.95    1937.9563    95360.074   -2151198.6    112667.37   -2038531.3    5090384.9 
    7900        1.975    1927.2788    94961.968   -2150581.1     112046.6   -2038534.5    5085209.7 
    8000            2    1916.5301     95480.08   -2149943.6    111421.71   -2038521.9    5080034.6 
    8100        2.025     1904.486    95768.552   -2149231.8    110721.49   -2038510.3    5074859.5 
    8200         2.05    1894.2831    96651.812   -2148633.6    110128.33   -2038505.2    5069684.3 
    8300        2.075    1883.9057    96534.989   -2148021.7    109525.01   -2038496.7    5064509.2 
    8400          2.1    1873.0786    97484.666   -2147386.1    108895.56   -2038490.5    5059334.1 
    8500        2.125     1863.615    98490.373   -2146836.8    108345.37   -2038491.4      5054159 
    8600         2.15    1853.7558    99801.663   -2146268.1    107772.18   -2038495.9    5048983.8 
    8700        2.175    1843.4246    100819.92     -2145673    107171.55   -2038501.4    5043808.7 
    8800          2.2    1834.4185    101630.01   -2145142.9    106647.97   -2038494.9    5038633.6 
    8900        2.225    1823.8294     103982.3     -2144533    106032.35   -2038500.6    5033458.4 
    9000         2.25    1814.9105    105765.63     -2144010    105513.83   -2038496.2    5028283.3 
    9100        2.275    1804.7602    106676.79   -2143412.3    104923.71   -2038488.6    5023108.2 
    9200          2.3    1795.1421    109059.24     -2142853    104364.54   -2038488.5    5017933.1 
    9300        2.325    1784.6656    111118.75   -2142254.3    103755.47   -2038498.9    5012757.9 
    9400         2.35    1775.2573    113377.36     -2141712     103208.5   -2038503.5    5007582.8 
    9500        2.375    1765.9729    114535.87   -2141168.3    102668.73   -2038499.6    5002407.7 
    9600          2.4    1756.3489    116570.91   -2140607.2    102109.22     -2038498    4997232.6 
    9700        2.425    1747.0627    118927.77     -2140071    101569.35   -2038501.7    4992057.4 
    9800         2.45    1736.6138    120245.84   -2139468.6    100961.87   -2038506.7    4986882.3 
    9900        2.475    1726.7797     123259.1   -2138891.9    100390.15   -2038501.8    4981707.2 
   10000          2.5    1718.1955    124567.65   -2138388.9    99891.087   -2038497.8      4976532 
   10100        2.525    1708.3531    126268.65   -2137807.8    99318.879   -2038488.9    4971356.9 
   10200         2.55    1697.8993    128178.39   -2137191.2    98711.124   -2038480.1    4966181.8 
   10300        2.575    1687.9385    130563.42   -2136597.3    98132.029   -2038465.3    4961006.7 
   10400          2.6     1677.203    132312.39   -2135993.5    97507.897   -2038485.6    4955831.5 
   10500        2.625    1667.2267    133212.56   -2135407.1      96927.9   -2038479.2    4950656.4 
   10600         2.65    1657.0155    134736.85   -2134800.9    96334.254   -2038466.6    4945481.3 
   10700        2.675     1647.613    136646.24   -2134254.5    95787.617   -2038466.9    4940306.2 
   10800          2.7    1639.1529    138319.77   -2133760.1    95295.772   -2038464.4      4935131 
   10900        2.725    1636.3407    139246.28     -2133592    95132.276   -2038459.7    4929955.9 
   11000         2.75    1634.6318    140193.26   -2133490.9    95032.925     -2038458    4924780.8 
   11100        2.775    1634.3532    141045.87   -2133465.5    95016.729   -2038448.7    4919605.6 
   11200          2.8    1634.3854    142455.68   -2133467.9      95018.6   -2038449.3    4914430.5 
   11300        2.825     1631.783    143123.52     -2133317    94867.306   -2038449.7    4909255.4 
   11400         2.85    1628.9264    144087.76   -2133148.8     94701.23   -2038447.5    4904080.3 
   11500        2.875    1626.8067    144322.36   -2133022.7    94577.994   -2038444.7    4898905.1 
   11600          2.9    1624.3272    145323.71   -2132874.3    94433.846   -2038440.5      4893730 
   11700        2.925     1621.288    146540.66   -2132690.3    94257.155   -2038433.2    4888554.9 
   11800         2.95    1616.2967    148099.17   -2132396.9    93966.975   -2038429.9    4883379.8 
   11900        2.975    1611.9548     149563.5   -2132135.3    93714.548   -2038420.7    4878204.6 
   12000            3    1607.7541    150164.04     -2131876    93470.331   -2038405.7    4873029.5 
   12100        3.025    1602.7024    152719.03   -2131572.9    93176.638   -2038396.3    4867854.4 
   12200         3.05    1596.0228    153072.42   -2131189.8    92788.306   -2038401.5    4862679.2 
   12300        3.075    1589.7833    154410.29     -2130826    92425.559   -2038400.5    4857504.1 
   12400          3.1    1581.3798    156894.31   -2130338.9    91937.004   -2038401.9      4852329 
   12500        3.125    1567.9016    158633.82   -2129554.5    91153.417   -2038401.1    4847153.9 
   12600         3.15    1553.6866    162140.06   -2128732.3    90326.999   -2038405.3    4841978.7 
   12700        3.175    1538.4167    163183.12   -2127853.8    89439.246   -2038414.6    4836803.6 
   12800          3.2    1522.1193    165620.35   -2126897.6    88491.766   -2038405.8    4831628.5 
   12900        3.225    1507.9693    168345.34   -2126067.2     87669.12   -2038398.1    4826453.3 
   13000         3.25    1492.8556    170198.53   -2125188.4    86790.452   -2038397.9    4821278.2 
   13100        3.275    1476.5175    172601.39   -2124248.2      85840.6   -2038407.6    4816103.1 
   13200          3.3    1462.2153    175816.54   -2123414.3    85009.115   -2038405.2      4810928 
   13300        3.325     1448.355     177588.3   -2122611.3    84203.314     -2038408    4805752.8 
   13400         3.35    1433.1513    179408.51   -2121722.1    83319.412   -2038402.7    4800577.7 
   13500        3.375    1420.6211    182299.45   -2120989.7    82590.942   -2038398.8    4795402.6 
   13600          3.4    1405.1998    184714.87   -2120080.7    81694.388   -2038386.3    4790227.5 
   13700        3.425    1390.7557    187159.91   -2119240.7    80854.649     -2038386    4785052.3 
   13800         3.45    1378.6623    189945.41     -2118555    80151.577   -2038403.4    4779877.2 
   13900        3.475    1364.1594    191681.06   -2117705.9    79308.414   -2038397.4    4774702.1 
   14000          3.5    1352.3265    193766.87   -2117023.4    78620.482   -2038402.9    4769526.9 
   14100        3.525    1340.6154    196208.77   -2116340.6    77939.634   -2038400.9    4764351.8 
   14200         3.55    1329.0595    198415.19   -2115662.4    77267.809   -2038394.6    4759176.7 
   14300        3.575    1318.2947    200248.99   -2115025.8    76641.971   -2038383.9    4754001.6 
   14400          3.6     1308.939    201830.96   -2114470.1    76098.056   -2038372.1    4748826.4 
   14500        3.625    1297.9045    203976.95   -2113832.6     75456.54   -2038376.1    4743651.3 
   14600         3.65    1288.6782    206347.99   -2113301.6    74920.151   -2038381.5    4738476.2 
   14700        3.675    1279.9534    208242.06   -2112798.5    74412.913   -2038385.6    4733301.1 
   14800          3.7    1271.6757    209709.54   -2112337.1    73931.673   -2038405.4    4728125.9 
   14900        3.725    1263.3388    211743.96   -2111849.3    73446.987   -2038402.3    4722950.8 
   15000         3.75    1255.5796    212780.48   -2111394.1    72995.892   -2038398.2    4717775.7 
   15100        3.775    1248.6763    213815.59   -2110989.7    72594.554   -2038395.1    4712600.5 
   15200          3.8    1240.5553    215829.92   -2110514.5    72122.418   -2038392.1    4707425.4 
   15300        3.825    1232.4776    216724.96   -2110043.5    71652.805   -2038390.7    4702250.3 
   15400         3.85    1224.3999    217027.63   -2109580.9    71183.189   -2038397.7    4697075.2 
   15500        3.875    1215.9584    217643.96     -2109095    70692.423   -2038402.5      4691900 
   15600          3.9    1207.9459    218396.36   -2108623.3    70226.598   -2038396.7    4686724.9 
   15700        3.925    1199.9542    218922.19   -2108150.1    69761.984   -2038388.1    4681549.8 
   15800         3.95    1191.7401    220112.22   -2107666.2    69284.443   -2038381.8    4676374.7 
   15900        3.975    1183.0246    220510.89   -2107157.8    68777.746   -2038380.1    4671199.5 
   16000            4    1174.3823    221470.42   -2106650.9    68275.307   -2038375.6    4666024.4 
   16100        4.025    1164.9758     221620.1   -2106107.1     67728.44   -2038378.6    4660849.3 
   16200         4.05    1156.1344    221924.01   -2105596.5    67214.425   -2038382.1    4655674.1 
   16300        4.075    1146.8511    222447.36   -2105059.6    66674.718   -2038384.9      4650499 
   16400          4.1    1137.9167    222717.43     -2104558    66155.298   -2038402.7    4645323.9 
   16500        4.125    1129.6201    223764.75   -2104095.3    65672.954   -2038422.4    4640148.8 
   16600         4.15    1121.1257       225550     -2103619    65179.114   -2038439.9    4634973.6 
   16700        4.175    1117.9523    224910.26     -2103428    64994.625   -2038433.3    4629798.5 
   16800          4.2    1116.2156    225340.25   -2103317.1    64893.657   -2038423.4    4624623.4 
   16900        4.225    1112.6994    225800.32   -2103105.1    64689.232   -2038415.9    4619448.3 
   17000         4.25     1110.852    226835.76   -2102995.6    64581.832   -2038413.7    4614273.1 
   17100        4.275    1109.4709    227787.05     -2102912    64501.537   -2038410.5      4609098 
   17200          4.3    1105.8423    228414.57   -2102699.7    64290.583   -2038409.1    4603922.9 
   17300        4.325    1103.8419    229897.37   -2102588.3    64174.285     -2038414    4598747.7 
   17400         4.35    1100.4881    231918.93   -2102401.2    63979.303   -2038421.9    4593572.6 
   17500        4.375    1098.7363    233494.94   -2102307.1    63877.457   -2038429.6    4588397.5 
   17600          4.4    1095.1584    236530.37   -2102100.1    63669.452   -2038430.6    4583222.4 
   17700        4.425    1092.0387    238927.79   -2101928.9    63488.081   -2038440.9    4578047.2 
   17800         4.45    1089.0883    241276.25   -2101753.2    63316.549   -2038436.7    4572872.1 
   17900        4.475    1083.7928    244566.73   -2101443.9    63008.686   -2038435.2      4567697 
   18000          4.5    1078.3459    246717.92   -2101124.2     62692.02   -2038432.2    4562521.8 
   18100        4.525    1072.6003    250402.03     -2100790    62357.984     -2038432    4557346.7 
   18200         4.55    1063.7056    254169.15   -2100264.2    61840.875   -2038423.3    4552171.6 
   18300        4.575     1055.041    257732.18   -2099755.9    61337.134   -2038418.7    4546996.5 
   18400          4.6    1042.4911    261443.92     -2099025    60607.518   -2038417.5    4541821.3 
   18500        4.625    1028.4932    267108.51     -2098204     59793.72   -2038410.2    4536646.2 
   18600         4.65    1012.7195    271511.94   -2097296.5    58876.681   -2038419.8    4531471.1 
   18700        4.675     996.4936    274395.88   -2096349.2    57933.354   -2038415.8      4526296 
   18800          4.7    978.65772    279151.13   -2095306.7    56896.426   -2038410.3    4521120.8 
   18900        4.725    962.94082    283154.11   -2094396.3    55982.689   -2038413.6    4515945.7 
   19000         4.75    945.53662    287544.12   -2093387.9    54970.857     -2038417    4510770.6 
   19100        4.775    927.35119    290615.37   -2092334.5    53913.607   -2038420.9    4505595.4 
   19200          4.8    910.30233    294243.14   -2091348.6    52922.434   -2038426.2    4500420.3 
   19300        4.825    895.15772    297723.91   -2090466.2    52041.969   -2038424.3    4495245.2 
   19400         4.85      878.181    300353.22   -2089475.7     51054.99   -2038420.7    4490070.1 
   19500        4.875    861.11946    304189.94   -2088488.6     50063.08   -2038425.5    4484894.9 
   19600          4.9    846.49588    305590.65   -2087636.9    49212.906     -2038424    4479719.8 
   19700        4.925     830.2788    308094.12     -2086695     48270.09   -2038424.9    4474544.7 
   19800         4.95    816.28329    309855.49   -2085890.8     47456.43   -2038434.3    4469369.6 
   19900        4.975    801.79812    310741.59   -2085051.8    46614.303   -2038437.5    4464194.4 
   20000            5    789.48829    313225.22   -2084335.1    45898.644   -2038436.4    4459019.3 
   20100        5.025    776.02131    315236.93   -2083571.3    45115.711   -2038455.6    4453844.2 
   20200         5.05     766.2218    315101.79   -2083005.4    44545.995   -2038459.4      4448669 
   20300        5.075    755.93972    317356.24   -2082392.1    43948.223   -2038443.9    4443493.9 
   20400          5.1    745.09239    318452.92   -2081734.2     43317.59   -2038416.6    4438318.8 
   20500        5.125    736.65421    319848.15   -2081193.9    42827.018   -2038366.9    4433143.7 
   20600         5.15     730.4443    321062.73   -2080749.4    42465.991   -2038283.4    4427968.5 
   20700        5.175    723.60961    322489.52   -2080228.2    42068.641   -2038159.5    4422793.4 
   20800          5.2    719.81101    324902.77   -2079836.9    41847.801   -2037989.1    4417618.3 
   20900        5.225    714.79739    325871.66   -2079330.3    41556.323     -2037774    4412443.2 
   21000         5.25    713.33563    326338.58   -2078981.6    41471.341   -2037510.3      4407268 
   21100        5.275    710.82369    329616.16   -2078549.2    41325.304   -2037223.9    4402092.9 
   21200          5.3    709.78581    330463.43   -2078210.5    41264.964   -2036945.5    4396917.8 
   21300        5.325    705.68935    333303.65   -2077701.9    41026.807   -2036675.1    4391742.6 
   21400         5.35    703.24754    335217.26   -2077280.6    40884.847   -2036395.8    4386567.5 
   21500        5.375    700.69559    337470.69   -2076839.9    40736.484   -2036103.4    4381392.4 
   21600          5.4    696.69643    340148.95   -2076301.9    40503.984   -2035797.9    4376217.3 
   21700        5.425    691.71357     341848.9   -2075691.7    40214.294   -2035477.4    4371042.1 
   21800         5.45      687.187    344122.39   -2075090.7    39951.132   -2035139.6      4365867 
   21900        5.475    682.25464    346095.95   -2074451.9    39664.379   -2034787.5    4360691.9 
   22000          5.5    677.32288    348455.87   -2073789.1     39377.66   -2034411.4    4355516.7 
   22100        5.525    672.60128    350520.62   -2073099.5    39103.159   -2033996.3    4350341.6 
   22200         5.55    669.55939    353418.25   -2072456.7    38926.312   -2033530.4    4345166.5 
   22300        5.575    667.30243    355964.56   -2071790.8    38795.099   -2032995.7    4339991.4 
   22400          5.6    665.86411    357532.24   -2071069.4    38711.479   -2032357.9    4334816.2 
   22500        5.625    667.95866    360143.31   -2070387.2     38833.25   -2031553.9    4329641.1 
   22600         5.65    674.97325    362872.96   -2069750.3    39241.059   -2030509.3      4324466 
   22700        5.675    685.62515    364292.58   -2069102.2    39860.331   -2029241.9    4319290.9 
   22800          5.7    697.07892    366859.55   -2068357.3    40526.221   -2027831.1    4314115.7 
   22900        5.725    709.00776    368536.31   -2067549.4     41219.73   -2026329.6    4308940.6 
   23000         5.75    721.61104    370197.75   -2066662.4     41952.45     -2024710    4303765.5 
   23100        5.775    735.03331    372749.62   -2065575.1    42732.783   -2022842.3    4298590.3 
   23200          5.8    749.19594    375360.28   -2064353.6    43556.159   -2020797.4    4293415.2 
   23300        5.825    760.91486    376606.16   -2063071.7    44237.464   -2018834.2    4288240.1 
   23400         5.85    768.39966    381487.49   -2061502.3     44672.61   -2016829.7      4283065 
   23500        5.875    777.94983    382770.94   -2059854.4    45227.829   -2014626.6    4277889.8 
   23600          5.9     782.7507    386399.39   -2057937.8    45506.939   -2012430.9    4272714.7 
   23700        5.925     784.1306    390143.27   -2055763.1    45587.162     -2010176    4267539.6 
   23800         5.95    787.32576    394941.79   -2053629.1     45772.92   -2007856.1    4262364.5 
   23900        5.975    789.46363    398899.68   -2051276.4     45897.21   -2005379.2    4257189.3 
   24000            6    794.32994    404724.93   -2048951.5    46180.124   -2002771.4    4252014.2 
   24100        6.025    800.17651    408386.48   -2046565.9    46520.027   -2000045.9    4246839.1 
   24200         6.05    807.81538    413850.22     -2044179    46964.129   -1997214.9    4241663.9 
   24300        6.075    818.26865    418881.76   -2041736.5    47571.853   -1994164.6    4236488.8 
   24400          6.1    833.31793    424705.45   -2039214.3    48446.776   -1990767.5    4231313.7 
   24500        6.125    853.80528    429495.02   -2036770.1    49637.853   -1987132.3    4226138.6 
   24600         6.15    872.56812    435478.13   -2034315.3    50728.673   -1983586.7    4220963.4 
   24700        6.175    886.75426    440550.31   -2031810.7    51553.415   -1980257.3    4215788.3 
   24800          6.2    902.97349    446895.99     -2029458    52496.356   -1976961.7    4210613.2 
   24900        6.225    919.03229    452190.86   -2026993.7     53429.97   -1973563.8    4205438.1 
   25000         6.25    939.02655    456822.72   -2024757.3     54592.38     -1970165    4200262.9 
   25100        6.275     954.7952    463169.87   -2022361.1    55509.125     -1966852    4195087.8 
   25200          6.3    971.92727    468434.24   -2020072.6    56505.136   -1963567.5    4189912.7 
   25300        6.325    990.76302    474046.51   -2017865.3    57600.194   -1960265.1    4184737.5 
   25400         6.35     1007.798    479926.29   -2015578.4    58590.561   -1956987.9    4179562.4 
   25500        6.375    1028.1589    485978.09   -2013481.2    59774.285   -1953706.9    4174387.3 
   25600          6.4     1045.966     490441.3   -2011188.9    60809.542   -1950379.3    4169212.2 
   25700        6.425    1069.6902    495899.08   -2009196.8    62188.801     -1947008      4164037 
   25800         6.45    1092.8025    500358.53   -2007148.6    63532.484   -1943616.1    4158861.9 
   25900        6.475    1117.7348    506299.63   -2005209.4    64981.979   -1940227.4    4153686.8 
   26000          6.5     1140.457    510841.71   -2003188.9    66302.983   -1936885.9    4148511.6 
   26100        6.525    1165.5672    514831.96   -2001314.2    67762.821   -1933551.4    4143336.5 
   26200         6.55    1189.6507    519388.21   -1999326.9    69162.966   -1930163.9    4138161.4 
   26300        6.575    1211.6549    524511.49     -1997217    70442.228   -1926774.8    4132986.3 
   26400          6.6    1238.0543    529472.18   -1995411.8     71977.02   -1923434.8    4127811.1 
   26500        6.625    1261.6489    533377.84   -1993478.5    73348.741   -1920129.7      4122636 
   26600         6.65    1288.2779    537093.75   -1991751.4    74896.878   -1916854.5    4117460.9 
   26700        6.675    1313.9034     540705.1   -1989977.5    76386.673   -1913590.9    4112285.8 
   26800          6.7    1336.3178    543734.53   -1988073.7    77689.783   -1910383.9    4107110.6 
   26900        6.725    1359.8362     547760.7   -1986135.7    79057.077   -1907078.6    4101935.5 
   27000         6.75    1382.7792    551298.84   -1984269.9     80390.92   -1903878.9    4096760.4 
   27100        6.775    1412.2986    553620.56     -1982740    82107.092   -1900632.9    4091585.2 
   27200          6.8     1441.255    556659.18     -1981252    83790.542   -1897461.5    4086410.1 
   27300        6.825    1462.5235    558165.95   -1979342.7     85027.03   -1894315.7      4081235 
   27400         6.85    1494.5959    562071.66   -1978081.6    86891.632     -1891190    4076059.9 
   27500        6.875    1518.1119    565989.71   -1976339.3    88258.783   -1888080.5    4070884.7 
   27600          6.9    1545.8234    568313.61   -1974876.2    89869.853   -1885006.3    4065709.6 
   27700        6.925    1573.6408    571152.73   -1973427.6    91487.078   -1881940.5    4060534.5 
   27800         6.95    1595.8436    574459.41   -1971641.6    92777.891   -1878863.7    4055359.4 
   27900        6.975    1626.6008    577371.65   -1970302.2    94566.029   -1875736.2    4050184.2 
   28000            7    1644.7228    582055.33     -1968204    95619.588   -1872584.5    4045009.1 
   28100        7.025    1668.2817    585346.65   -1966414.5    96989.237   -1869425.2      4039834 
   28200         7.05    1681.1151    590368.08   -1964026.5    97735.336   -1866291.1    4034658.8 
   28300        7.075      1701.84    593848.37   -1962115.6    98940.222   -1863175.3    4029483.7 
   28400          7.1     1720.871    598861.71   -1960187.5    100046.63   -1860140.9    4024308.6 
   28500        7.125    1733.7308    603787.37   -1957946.8    100794.27   -1857152.5    4019133.5 
   28600         7.15      1751.45    608049.39   -1956037.3    101824.41   -1854212.9    4013958.3 
   28700        7.175    1761.7925    612937.25   -1953781.3    102425.69   -1851355.6    4008783.2 
   28800          7.2    1778.3654    617262.24   -1951970.4    103389.19   -1848581.2    4003608.1 
   28900        7.225    1787.3512    622671.67   -1949772.4     103911.6   -1845860.8      3998433 
   29000         7.25    1798.8291    628096.04   -1947758.7     104578.9   -1843179.8    3993257.8 
   29100        7.275    1809.6333    632658.78     -1945745    105207.02     -1840538    3988082.7 
   29200          7.3    1822.2026    638182.16   -1943821.9    105937.77   -1837884.1    3982907.6 
   29300        7.325    1834.9941    644362.92   -1941846.4    106681.43     -1835165    3977732.4 
   29400         7.35    1845.4114    651005.28   -1939616.4    107287.06   -1832329.3    3972557.3 
   29500        7.375    1860.7057    656873.92   -1937549.8    108176.23   -1829373.6    3967382.2 
   29600          7.4     1875.638    663566.78   -1935398.5    109044.35   -1826354.2    3962207.1 
   29700        7.425    1892.1454    671326.55     -1933371    110004.05   -1823366.9    3957031.9 
   29800         7.45    1904.1791    677505.74   -1931146.9    110703.65   -1820443.3    3951856.8 
   29900        7.475     1921.034    686056.11   -1929252.3    111683.55   -1817568.8    3946681.7 
   30000          7.5    1934.7616    692363.39   -1927223.8    112481.63   -1814742.2    3941506.5 
   30100        7.525    1947.9784    699652.91   -1925186.1    113250.02   -1811936.1    3936331.4 
   30200         7.55    1959.9505    706430.52     -1923060    113946.04     -1809114    3931156.3 
   30300        7.575    1977.7126    715948.29   -1921241.6    114978.69   -1806262.9    3925981.2 
   30400          7.6    1992.5093     721571.4   -1919323.1    115838.93   -1803484.2      3920806 
   30500        7.625    2001.8106    729025.51   -1917253.8    116379.68   -1800874.1    3915630.9 
   30600         7.65    2009.5725    735220.21   -1915249.1    116830.93   -1798418.2    3910455.8 
   30700        7.675    2016.1836    741293.74   -1913222.5    117215.28   -1796007.2    3905280.7 
   30800          7.7    2024.2303    748415.75   -1911253.4     117683.1   -1793570.4    3900105.5 
   30900        7.725    2035.4217     754050.9   -1909463.1    118333.73   -1791129.4    3894930.4 
   31000         7.75    2046.6612    761028.84   -1907619.7    118987.17   -1788632.6    3889755.3 
   31100        7.775    2061.8387    765946.66   -1905973.1    119869.54   -1786103.5    3884580.1 
   31200          7.8    2079.6457    769741.23     -1904435    120904.79   -1783530.2      3879405 
   31300        7.825    2099.6669    772158.14   -1902997.1    122068.77   -1780928.4    3874229.9 
   31400         7.85    2123.4234       774728   -1901769.5     123449.9   -1778319.6    3869054.8 
   31500        7.875    2146.6807    778714.06   -1900536.8    124802.02   -1775734.8    3863879.6 
   31600          7.9    2165.7066    780680.04   -1899041.4    125908.13   -1773133.3    3858704.5 
   31700        7.925    2191.5212    783358.98   -1897667.2    127408.92   -1770258.3    3853529.4 
   31800         7.95    2209.9969    785211.37   -1896159.1    128483.04     -1767676    3848354.3 
   31900        7.975    2223.5388    788676.07   -1894497.6    129270.34   -1765227.3    3843179.1 
   32000            8    2238.6267    792035.62   -1892897.7     130147.5   -1762750.2      3838004 
   32100        8.025    2252.1063    797317.94   -1890962.5    130931.17   -1760031.3    3832828.9 
   32200         8.05    2267.0877    803353.21   -1888777.8    131802.15   -1756975.6    3827653.7 
   32300        8.075     2282.084     810236.5   -1886355.5    132673.99   -1753681.5    3822478.6 
   32400          8.1    2297.9248     818347.7   -1884007.9    133594.93     -1750413    3817303.5 
   32500        8.125    2310.8723    825415.64     -1881590    134347.66   -1747242.3    3812128.4 
   32600         8.15    2318.2934    833483.56   -1878885.7     134779.1   -1744106.6    3806953.2 
   32700        8.175    2330.2709    842674.61   -1876395.2    135475.44   -1740919.8    3801778.1 
   32800          8.2    2340.0361    851400.18   -1873732.5    136043.16   -1737689.4      3796603 
   32900        8.225    2350.4081    860345.31     -1871054    136646.16   -1734407.8    3791427.9 
   33000         8.25    2362.9963    870546.56   -1868424.1       137378   -1731046.1    3786252.7 
   33100        8.275    2373.3526    879419.17   -1865630.1    137980.09     -1727650    3781077.6 
   33200          8.3    2384.4498    888141.01   -1862971.8    138625.25   -1724346.6    3775902.5 
   33300        8.325    2397.9322    897465.59   -1860523.8    139409.08   -1721114.7    3770727.3 
   33400         8.35    2412.2387    905968.05   -1858085.3    140240.82   -1717844.5    3765552.2 
   33500        8.375     2426.641    916655.11   -1855520.4    141078.13   -1714442.3    3760377.1 
   33600          8.4    2447.7605    927060.72   -1853281.5    142305.96   -1710975.5      3755202 
   33700        8.425    2460.8106    936234.45   -1850647.3    143064.65   -1707582.6    3750026.8 
   33800         8.45    2471.1363    946181.93   -1847923.8    143664.96   -1704258.8    3744851.7 
   33900        8.475    2480.0209    956582.11   -1845112.5    144181.49     -1700931    3739676.6 
   34000          8.5    2487.0187    964678.84   -1842168.6    144588.32   -1697580.3    3734501.5 
   34100        8.525    2491.6915    974720.93   -1839093.8    144859.98   -1694233.8    3729326.3 
   34200         8.55    2497.6446    985009.03   -1836124.4    145206.08   -1690918.3    3724151.2 
   34300        8.575    2499.3881    992904.01   -1832934.9    145307.44   -1687627.4    3718976.1 
   34400          8.6    2500.6808    1002930.7   -1829691.9    145382.59   -1684309.3    3713800.9 
   34500        8.625    2502.0254    1012680.1   -1826409.6    145460.77   -1680948.8    3708625.8 
   34600         8.65    2501.7282    1021202.2   -1823005.9    145443.49   -1677562.4    3703450.7 
   34700        8.675    2504.0032    1031149.3   -1819753.8    145575.75     -1674178    3698275.6 
   34800          8.7    2503.0441    1039191.8   -1816334.4    145519.99   -1670814.4    3693100.4 
   34900        8.725    2503.9425    1045056.2   -1813002.4    145572.22   -1667430.2    3687925.3 
   35000         8.75    2507.9735    1052429.5     -1809881    145806.57   -1664074.4    3682750.2 
   35100        8.775    2506.5439    1060767.5   -1806472.6    145723.46   -1660749.1      3677575 
   35200          8.8    2509.3433    1066064.2   -1803372.9    145886.21   -1657486.7    3672399.9 
   35300        8.825    2510.2196    1073563.6   -1800241.7    145937.15   -1654304.5    3667224.8 
   35400         8.85    2513.3885    1080941.6   -1797182.4    146121.38     -1651061    3662049.7 
   35500        8.875    2508.8487    1086464.4   -1793836.7    145857.45   -1647979.2    3656874.5 
   35600          8.9    2503.8414    1092234.1   -1790540.3    145566.35     -1644974    3651699.4 
   35700        8.925    2497.9939    1099268.2   -1787171.1    145226.39   -1641944.7    3646524.3 
   35800         8.95     2490.123    1105396.5   -1783808.8    144768.79     -1639040    3641349.2 
   35900        8.975    2473.7814    1111338.7   -1779938.1    143818.74   -1636119.3      3636174 
   36000            9     2459.803    1119705.6   -1776299.9    143006.08   -1633293.8    3630998.9 
   36100        9.025    2442.3409    1127910.9   -1772432.4    141990.88   -1630441.5    3625823.8 
   36200         9.05     2423.528    1134926.3   -1768519.4    140897.14   -1627622.3    3620648.6 
   36300        9.075    2406.0344    1141526.2   -1764666.3    139880.12   -1624786.2    3615473.5 
   36400          9.1    2387.2033    1149434.7   -1760720.7    138785.33   -1621935.4    3610298.4 
   36500        9.125    2368.1107    1158928.9   -1756716.7    137675.34   -1619041.3    3605123.3 
   36600         9.15    2350.4514    1164615.9     -1752777    136648.67   -1616128.4    3599948.1 
   36700        9.175    2332.7848    1172601.1   -1748817.7    135621.59   -1613196.1      3594773 
   36800          9.2    2318.0757    1179414.2   -1745049.9    134766.44   -1610283.4    3589597.9 
   36900        9.225    2301.6085    1187677.7   -1741207.1    133809.09     -1607398    3584422.8 
   37000         9.25     2282.969    1196689.5   -1737314.4    132725.44   -1604588.9    3579247.6 
   37100        9.275    2268.6149    1205817.2   -1733768.5    131890.93   -1601877.6    3574072.5 
   37200          9.3    2250.9751    1214890.4   -1730108.9     130865.4   -1599243.5    3568897.4 
   37300        9.325    2230.7367      1222841   -1726373.9     129688.8   -1596685.1    3563722.2 
   37400         9.35    2210.5589    1233189.4   -1722721.5    128515.72   -1594205.8    3558547.1 
   37500        9.375    2188.2056    1242540.4   -1719041.9    127216.16   -1591825.8      3553372 
   37600          9.4    2163.4407    1251063.7   -1715269.3     125776.4   -1589492.9    3548196.9 
   37700        9.425    2139.8581    1261068.4   -1711576.2    124405.37   -1587170.9    3543021.7 
   37800         9.45    2115.5911    1269197.2   -1707826.2    122994.56   -1584831.7    3537846.6 
   37900        9.475    2087.7519    1278519.3   -1703896.3    121376.06   -1582520.2    3532671.5 
   38000          9.5    2060.5118    1281521.1   -1700030.6     119792.4   -1580238.2    3527496.4 
   38100        9.525    2029.1259    1290107.5     -1695959    117967.71   -1577991.3    3522321.2 
   38200         9.55    1996.2252    1296004.7   -1691893.3    116054.96   -1575838.4    3517146.1 
   38300        9.575    1969.0044    1300894.2   -1688180.9    114472.42   -1573708.5      3511971 
   38400          9.6    1938.7211    1306298.1   -1684305.2    112711.83   -1571593.4    3506795.8 
   38500        9.625    1909.4131    1311442.7   -1680461.1    111007.94   -1569453.1    3501620.7 
   38600         9.65    1883.4033    1317657.5   -1676779.5     109495.8   -1567283.7    3496445.6 
   38700        9.675    1854.7915    1321016.7   -1672924.3     107832.4   -1565091.9    3491270.5 
   38800          9.7    1830.2722    1327239.6   -1669291.6    106406.91   -1562884.7    3486095.3 
   38900        9.725    1798.9837    1328314.3   -1665271.4    104587.88   -1560683.6    3480920.2 
   39000         9.75    1773.4256    1332768.8   -1661555.1    103102.01   -1558453.1    3475745.1 
   39100        9.775    1745.2256    1339715.5   -1657661.3    101462.54   -1556198.8    3470569.9 
   39200          9.8    1717.6656    1341036.4   -1653707.1    99860.281   -1553846.8    3465394.8 
   39300        9.825     1696.538    1350202.6   -1649850.4    98631.977   -1551218.4    3460219.7 
   39400         9.85    1673.5943    1356248.1   -1645525.8    97298.096   -1548227.7    3455044.6 
   39500        9.875    1661.8947    1361260.6   -1641560.6    96617.917   -1544942.7    3449869.4 
   39600          9.9    1647.2051    1365289.3   -1637325.1    95763.901   -1541561.2    3444694.3 
   39700        9.925    1634.4954    1373867.8   -1633358.3    95024.996   -1538333.3    3439519.2 
   39800         9.95    1618.1511    1376002.3   -1629357.2    94074.782   -1535282.4    3434344.1 
   39900        9.975     1601.221    1385829.1   -1625327.1    93090.518   -1532236.6    3429168.9 
   40000           10    1588.7305      1391079   -1621479.5    92364.352   -1529115.1    3423993.8 
   40100       10.025    1581.1122    1403712.4   -1617676.7    91921.444   -1525755.3    3418818.7 
   40200        10.05    1573.6853    1410084.2   -1613685.7    91489.664   -1522196.1    3413643.5 
   40300       10.075    1570.4212    1418537.8   -1609977.9    91299.904     -1518678    3408468.4 
   40400         10.1      1569.82    1426790.4     -1606386    91264.948   -1515121.1    3403293.3 
   40500       10.125    1561.8768      1438064   -1602382.4    90803.151   -1511579.3    3398118.2 
   40600        10.15    1561.4873    1449064.1   -1598650.1    90780.506   -1507869.6      3392943 
   40700       10.175    1554.4549    1460896.4   -1594496.2    90371.668   -1504124.5    3387767.9 
   40800         10.2    1553.2885    1471976.2   -1590554.2    90303.851   -1500250.3    3382592.8 
   40900       10.225     1553.059    1484514.6   -1586542.1    90290.509   -1496251.6    3377417.7 
   41000        10.25    1550.0496    1497120.4   -1582365.2    90115.556   -1492249.7    3372242.5 
   41100       10.275    1545.0511    1506398.7   -1578064.3    89824.952   -1488239.3    3367067.4 
   41200         10.3    1542.5071    1521323.5   -1573818.2    89677.051   -1484141.2    3361892.3 
   41300       10.325    1542.2353    1531924.1   -1569475.2    89661.251     -1479814    3356717.1 
   41400        10.35    1544.7542    1542988.2   -1565184.9    89807.696   -1475377.2      3351542 
   41500       10.375    1541.2827    1556625.3   -1560375.3    89605.869   -1470769.4    3346366.9 
   41600         10.4    1542.8094    1566338.6     -1555633    89694.628   -1465938.4    3341191.8 
   41700       10.425    1550.3706    1576900.3   -1551114.9    90134.218   -1460980.7    3336016.6 
   41800        10.45    1556.9397    1584805.7   -1546444.5    90516.121   -1455928.4    3330841.5 
   41900       10.475    1558.9366    1587453.8   -1541424.9    90632.218   -1450792.7    3325666.4 
   42000         10.5     1567.106    1601367.1   -1536687.8    91107.164   -1445580.6    3320491.3 
   42100       10.525    1570.1657    1608034.7   -1531620.3    91285.048   -1440335.3    3315316.1 
   42200        10.55    1575.1845    1613178.1     -1526631    91576.828   -1435054.2      3310141 
   42300       10.575    1578.4577      1618594   -1521447.2    91767.122   -1429680.1    3304965.9 
   42400         10.6    1583.1635      1629998   -1516281.8    92040.703   -1424241.1    3299790.7 
   42500       10.625    1588.0388      1634679   -1510970.9     92324.14   -1418646.8    3294615.6 
   42600        10.65    1589.6337    1646787.8   -1505239.8    92416.864   -1412822.9    3289440.5 
   42700       10.675     1598.173    1655816.7   -1499726.7    92913.311   -1406813.4    3284265.4 
   42800         10.7    1611.2635    1665582.6   -1494186.1    93674.358   -1400511.7    3279090.2 
   42900       10.725    1626.1131    1676168.1   -1488596.8    94537.674   -1394059.1    3273915.1 
   43000        10.75    1644.3525    1687352.2   -1483004.7    95598.059   -1387406.7      3268740 
   43100       10.775    1658.7466    1698511.5   -1477168.6    96434.895   -1380733.7    3263564.8 
   43200         10.8    1678.9572    1709757.2   -1471567.8     97609.88   -1373957.9    3258389.7 
   43300       10.825    1697.0669    1722196.3   -1465616.1    98662.731   -1366953.3    3253214.6 
   43400        10.85    1720.4913    1731576.4   -1459960.4    100024.56   -1359935.9    3248039.5 
   43500       10.875    1737.3749    1749629.6     -1453790    101006.12   -1352783.9    3242864.3 
   43600         10.9     1761.588    1757248.1   -1447816.4    102413.81   -1345402.6    3237689.2 
   43700       10.925    1779.8457    1768858.8   -1441454.2    103475.26     -1337979    3232514.1 
   43800        10.95    1805.7526    1783404.9   -1435341.1    104981.41   -1330359.7      3227339 
   43900       10.975    1830.5029    1795029.3   -1429069.7    106420.33   -1322649.4    3222163.8 
   44000           11    1851.0427    1807373.9   -1422504.1    107614.45   -1314889.7    3216988.7 
   44100       11.025    1869.3142    1819878.8   -1415849.3    108676.71   -1307172.6    3211813.6 
   44200        11.05    1890.0231    1833770.3   -1409335.2    109880.67   -1299454.5    3206638.4 
   44300       11.075    1910.6289    1843680.1     -1402747    111078.63   -1291668.3    3201463.3 
   44400         11.1    1931.4106    1860081.3   -1396080.2    112286.81   -1283793.4    3196288.2 
   44500       11.125    1953.7312    1868737.7   -1389466.3    113584.47   -1275881.8    3191113.1 
   44600        11.15    1976.6281    1882528.3   -1382892.5    114915.64   -1267976.8    3185937.9 
   44700       11.175    1998.5013    1895214.3   -1376276.2    116187.28   -1260088.9    3180762.8 
   44800         11.2    2018.8293    1907932.7   -1369539.6     117369.1   -1252170.5    3175587.7 
   44900       11.225    2040.5522    1922953.1   -1362777.2    118632.01   -1244145.2    3170412.6 
   45000        11.25    2060.0772    1937518.9   -1355736.9    119767.13   -1235969.7    3165237.4 
   45100       11.275    2084.1221    1952971.9   -1348897.8    121165.03   -1227732.8    3160062.3 
   45200         11.3    2107.4483    1965746.2   -1342032.7    122521.16   -1219511.6    3154887.2 
   45300       11.325     2127.008    1979226.3   -1334909.2    123658.31   -1211250.9      3149712 
   45400        11.35    2151.4606    1993304.7   -1327983.9    125079.91   -1202903.9    3144536.9 
   45500       11.375     2175.853    2008363.6   -1321084.9    126498.01   -1194586.9    3139361.8 
   45600         11.4     2198.208    2021001.7   -1314105.6    127797.67     -1186308    3134186.7 
   45700       11.425    2221.7112    2036051.8   -1307337.4    129164.08   -1178173.3    3129011.5 
   45800        11.45    2247.4232    2049011.2   -1300679.1    130658.91   -1170020.2    3123836.4 
   45900       11.475     2267.091    2059026.6   -1293727.6    131802.34   -1161925.3    3118661.3 
   46000         11.5    2290.3491    2080005.7   -1287045.3     133154.5   -1153890.8    3113486.2 
   46100       11.525    2311.9705    2092542.4   -1280286.9     134411.5   -1145875.4      3108311 
   46200        11.55    2332.0477    2105773.5   -1273555.2    135578.74   -1137976.5    3103135.9 
   46300       11.575    2357.5603    2124721.4   -1267143.4    137061.97   -1130081.4    3097960.8 
   46400         11.6    2377.4219      2138439   -1260448.2    138216.67   -1122231.5    3092785.6 
   46500       11.625    2394.3886    2154630.5   -1253556.6    139203.06   -1114353.5    3087610.5 
   46600        11.65    2420.1477    2173252.8   -1247085.1    140700.63   -1106384.5    3082435.4 
   46700       11.675    2441.7538    2192127.6   -1240419.7    141956.74     -1098463    3077260.3 
   46800         11.7    2468.7545    2207950.4   -1233788.2    143526.49   -1090261.7    3072085.1 
   46900       11.725    2500.7436    2220926.1   -1227466.9    145386.24   -1082080.7      3066910 
   47000        11.75    2532.9647    2240357.8     -1221044    147259.49   -1073784.6    3061734.9 
   47100       11.775    2566.0512    2258236.3   -1214451.2    149183.05   -1065268.1    3056559.8 
   47200         11.8    2599.0357    2276655.3   -1207852.7    151100.68     -1056752    3051384.6 
   47300       11.825    2632.2381    2295179.6   -1201110.1    153030.97   -1048079.2    3046209.5 
   47400        11.85    2666.2209    2313620.6   -1194412.5    155006.63   -1039405.9    3041034.4 
   47500       11.875    2697.8445    2332088.5   -1187476.3    156845.14   -1030631.1    3035859.2 
   47600         11.9    2728.4176    2352755.9   -1180362.8    158622.58   -1021740.2    3030684.1 
   47700       11.925    2768.1187    2371640.1   -1173693.7    160930.69     -1012763      3025509 
   47800        11.95    2797.0023    2393090.2   -1166346.2     162609.9   -1003736.3    3020333.9 
   47900       11.975    2829.7142    2417982.5   -1159176.6    164511.68   -994664.88    3015158.7 
   48000           12    2856.7899    2440745.3   -1151641.8    166085.78   -985556.04    3009983.6 
   48100       12.025    2892.1719    2460769.1   -1144536.5    168142.79   -976393.73    3004808.5 
   48200        12.05    2917.2964    2481288.2   -1136846.7    169603.46    -967243.2    2999633.3 
   48300       12.075      2941.43    2503691.3   -1129186.6    171006.52   -958180.04    2994458.2 
   48400         12.1    2958.1186    2523611.6   -1121189.6    171976.75   -949212.89    2989283.1 
   48500       12.125    2972.2896    2547407.3   -1113073.5    172800.61   -940272.89      2984108 
   48600        12.15    2990.0809    2568874.8     -1105201    173834.95   -931366.05    2978932.8 
   48700       12.175    3002.2501    2591969.8   -1097045.5    174542.43   -922503.09    2973757.7 
   48800         12.2    3013.5636    2612361.3   -1088911.2    175200.17   -913711.07    2968582.6 
   48900       12.225    3019.3044    2634507.9   -1080464.8    175533.92   -904930.83    2963407.5 
   49000        12.25    3032.5915    2657588.8   -1072427.2     176306.4    -896120.8    2958232.3 
   49100       12.275    3039.4563      2674548   -1064001.6     176705.5   -887296.11    2953057.2 
   49200         12.3    3047.5039    2693778.5   -1055638.3    177173.36   -878464.98    2947882.1 
   49300       12.325     3056.562    2717451.6   -1047286.5    177699.98   -869586.56    2942706.9 
   49400        12.35    3063.4457    2735132.1   -1038775.5    178100.17   -860675.36    2937531.8 
   49500       12.375    3068.8211    2755713.1   -1030146.5    178412.68   -851733.85    2932356.7 
   49600         12.4    3073.8377    2772745.5   -1021467.5    178704.34   -842763.18    2927181.6 
   49700       12.425    3085.9325    2791452.5   -1013158.1     179407.5   -833750.57    2922006.4 
   49800        12.45    3090.1025    2806448.5   -1004461.9    179649.92   -824811.97    2916831.3 
   49900       12.475    3089.9503      2825880   -995508.55    179641.08   -815867.48    2911656.2 
   50000         12.5    3088.3953    2841956.6   -986588.07    179550.67    -807037.4    2906481.1 
Loop time of 4274 on 96 procs for 50000 steps with 449770 atoms

Performance: 0.253 ns/day, 94.978 hours/ns, 11.699 timesteps/s
100.0% CPU use with 96 MPI tasks x 1 OpenMP threads

MPI task timing breakdown:
Section |  min time  |  avg time  |  max time  |%varavg| %total
---------------------------------------------------------------
Pair    | 1083.9     | 1677.8     | 4031.3     |2186.1 | 39.25
Neigh   | 13.416     | 17.826     | 23.332     |  55.8 |  0.42
Comm    | 67.418     | 505.77     | 2657.4     |3016.4 | 11.83
Output  | 9.6083     | 9.6094     | 9.6377     |   0.1 |  0.22
Modify  | 28.959     | 2058.6     | 2843.8     |2542.2 | 48.17
Other   |            | 4.416      |            |       |  0.10

Nlocal:        4685.10 ave        5361 max        4359 min
Histogram: 18 23 20 9 2 7 5 0 6 6
Nghost:        13273.4 ave       14841 max       12401 min
Histogram: 13 25 22 4 2 11 1 1 11 6
Neighs:         0.00000 ave           0 max           0 min
Histogram: 96 0 0 0 0 0 0 0 0 0
FullNghs:  1.51638e+06 ave 1.81596e+06 max      873351 min
Histogram: 6 0 12 0 0 0 6 46 14 12

Total # of neighbors = 1.4557292e+08
Ave neighs/atom = 323.66081
Neighbor list builds = 562
Dangerous builds = 0
Total wall time: 1:11:19
