LAMMPS (29 Sep 2021)
  using 1 OpenMP thread(s) per MPI task
Reading data file ...
  orthogonal box = (0.59103387 0.59501561 0.0000000) to (99.929056 99.925075 535.86400)
  3 by 2 by 16 MPI processor grid
  reading atoms ...
  444900 atoms
  reading velocities ...
  444900 velocities
  read_data CPU = 4.630 seconds
222450 atoms in group g_left
222450 atoms in group g_right

CITE-CITE-CITE-CITE-CITE-CITE-CITE-CITE-CITE-CITE-CITE-CITE-CITE

Your simulation uses code contributions which should be cited:
- @article{cjiang2012
The log file lists these citations in BibTeX format.

CITE-CITE-CITE-CITE-CITE-CITE-CITE-CITE-CITE-CITE-CITE-CITE-CITE

Neighbor list info ...
  update every 1 steps, delay 10 steps, check yes
  max neighbors/atom: 2000, page size: 100000
  master list distance cutoff = 8.28721
  ghost atom cutoff = 8.28721
  binsize = 4.143605, bins = 24 24 130
  3 neighbor lists, perpetual/occasional/extra = 3 0 0
  (1) pair eam/alloy, perpetual, skip from (3)
      attributes: half, newton on
      pair build: skip
      stencil: none
      bin: none
  (2) pair edip/multi, perpetual
      attributes: full, newton on
      pair build: full/bin/atomonly
      stencil: full/bin/3d
      bin: standard
  (3) neighbor class addition, perpetual, half/full from (2)
      attributes: half, newton on
      pair build: halffull/newton
      stencil: none
      bin: none
Setting up Verlet run ...
  Unit style    : metal
  Current step  : 0
  Time step     : 0.00025
Per MPI rank memory allocation (min/avg/max) = 9.981 | 12.82 | 15.98 Mbytes
Step Time Temp Press PotEng KinEng TotEng Volume 
       0            0    16458.084    187708.77   -2213927.9    946466.74   -1267461.2    5287504.9 
     100        0.025    16455.216    187679.41   -2213911.8    946301.81     -1267610    5272704.1 
     200         0.05     16455.87     188865.1   -2213947.4    946339.41     -1267608    5257903.2 
     300        0.075    16456.487    188654.69   -2213911.4    946374.84   -1267536.6    5243102.3 
     400          0.1    16455.673    188826.97   -2213888.4    946328.04   -1267560.3    5228301.4 
     500        0.125    16454.701    190261.25   -2213925.9    946272.15   -1267653.7    5213500.6 
     600         0.15    16454.486    190583.82   -2213941.4    946259.82   -1267681.6    5198699.7 
     700        0.175    16454.693    189984.24     -2213913    946271.72   -1267641.2    5183898.8 
     800          0.2    16454.593    191674.64   -2213906.6    946265.94   -1267640.7    5169097.9 
     900        0.225     16454.13    191937.46   -2213951.5    946239.31   -1267712.2      5154297 
    1000         0.25    16452.772    192439.41   -2213925.3    946161.25     -1267764    5139496.2 
    1100        0.275    16453.123    193101.63   -2213927.7    946181.44   -1267746.3    5124695.3 
    1200          0.3     16453.77    193765.35   -2213934.9    946218.64   -1267716.3    5109894.4 
    1300        0.325    16452.886    194900.78   -2213898.9    946167.78   -1267731.1    5095093.5 
    1400         0.35    16452.655    195730.87   -2213896.2    946154.53   -1267741.7    5080292.7 
    1500        0.375    16454.578     194788.3   -2213975.8    946265.06   -1267710.8    5065491.8 
    1600          0.4    16468.149    196855.93   -2214742.2    947045.55   -1267696.7    5050690.9 
    1700        0.425    16423.006    198758.17   -2212187.7    944449.43   -1267738.2      5035890 
    1800         0.45    16307.572    203200.55   -2205585.9    937811.08   -1267774.9    5021089.1 
    1900        0.475    16135.691    214263.43   -2195667.1    927926.63   -1267740.4    5006288.3 
    2000          0.5    16036.714    223655.06   -2189907.2    922234.71   -1267672.5    4991487.4 
    2100        0.525    15837.055    232712.02   -2178399.8    910752.77     -1267647    4976686.5 
    2200         0.55    15748.004    243489.41     -2173295    905631.61   -1267663.4    4961885.6 
    2300        0.575    15545.091     253456.7   -2161633.5    893962.58   -1267670.9    4947084.8 
    2400          0.6    15452.618    263190.49   -2156316.6    888644.66   -1267671.9    4932283.9 
    2500        0.625    15253.892    271455.03   -2144925.4    877216.39     -1267709      4917483 
    2600         0.65    15156.988    282018.95     -2139406    871643.63   -1267762.3    4902682.1 
    2700        0.675    14967.933    290990.67   -2128544.7    860771.53   -1267773.1    4887881.2 
    2800          0.7    14876.892    300845.85   -2123287.7    855535.96   -1267751.8    4873080.4 
    2900        0.725    14684.627    309879.67   -2112230.8    844479.27   -1267751.5    4858279.5 
    3000         0.75    14584.242    319898.42   -2106495.6    838706.34   -1267789.3    4843478.6 
    3100        0.775    14395.352    329860.16   -2095654.6    827843.75   -1267810.8    4828677.7 
    3200          0.8    14417.123    333645.34   -2096884.8    829095.73   -1267789.1    4813876.9 
    3300        0.825    14492.074     329571.2   -2101165.5    833405.96   -1267759.5      4799076 
    3400         0.85    14414.515    327197.52   -2096697.7    828945.76   -1267751.9    4784275.1 
    3500        0.875    14355.817    324255.07     -2093335    825570.13   -1267764.8    4769474.2 
    3600          0.9    14399.795    323894.82   -2095878.6     828099.2   -1267779.4    4754673.3 
    3700        0.925    14354.277    325546.17   -2093268.2    825481.61   -1267786.6    4739872.5 
    3800         0.95    14360.163    326189.86   -2093592.7    825820.06   -1267772.7    4725071.6 
    3900        0.975    14341.266    324671.51   -2092478.8    824733.34   -1267745.5    4710270.7 
    4000            1    14306.894    323288.08   -2090484.1    822756.69   -1267727.4    4695469.8 
    4100        1.025    14274.669    322582.78   -2088638.4    820903.54   -1267734.9      4680669 
    4200         1.05    14220.346    326138.63   -2085529.7    817779.51   -1267750.2    4665868.1 
    4300        1.075    14062.736    342428.84   -2076450.2    808715.75   -1267734.4    4651067.2 
    4400          1.1    13893.625    366534.02   -2066684.5    798990.53     -1267694    4636266.3 
    4500        1.125    13655.347    384837.63   -2052954.3     785287.7   -1267666.6    4621465.5 
    4600         1.15    13418.736    409571.64   -2039331.9    771680.74   -1267651.2    4606664.6 
    4700        1.175    13187.719    437686.61   -2026011.6    758395.48   -1267616.1    4591863.7 
    4800          1.2    12964.911    460829.05   -2013151.8    745582.35   -1267569.5    4577062.8 
    4900        1.225     12742.64    485195.17   -2000342.1    732800.02   -1267542.1    4562261.9 
    5000         1.25    12519.813    512029.16   -1987521.5    719985.77   -1267535.7    4547461.1 
    5100        1.275    12301.911     539304.5   -1974976.8    707454.72   -1267522.1    4532660.2 
    5200          1.3    12108.995    565000.26   -1963866.9    696360.56   -1267506.3    4517859.3 
    5300        1.325    11933.327    589325.59   -1953766.5     686258.3   -1267508.2    4503058.4 
    5400         1.35    11792.717    609684.01   -1945683.7    678172.15   -1267511.5    4488257.6 
    5500        1.375    11679.568    629601.01   -1939169.2    671665.23     -1267504    4473456.7 
    5600          1.4    11585.488       642005     -1933748    666254.89   -1267493.1    4458655.8 
    5700        1.425    11523.919     650867.6   -1930204.6    662714.21   -1267490.4    4443854.9 
    5800         1.45    11474.848    656272.27   -1927387.9    659892.23   -1267495.7      4429054 
    5900        1.475    11426.377    661443.79   -1924608.3    657104.74   -1267503.6    4414253.2 
    6000          1.5    11388.028    663348.36   -1922414.3    654899.41   -1267514.9    4399452.3 
    6100        1.525    11364.523    663912.08   -1921073.5    653547.69   -1267525.8    4384651.4 
    6200         1.55    11333.644    661906.37   -1919308.5    651771.88   -1267536.6    4369850.5 
    6300        1.575    11265.184    661490.74   -1915359.9     647834.9     -1267525    4355049.7 
    6400          1.6    11124.614    667256.84     -1907240    639751.04   -1267488.9    4340248.8 
    6500        1.625    11004.569    668903.27   -1900313.9    632847.55   -1267466.4    4325447.9 
    6600         1.65    10848.849    669930.33   -1891365.5    623892.48     -1267473      4310647 
    6700        1.675    10691.871    672723.27   -1882356.4    614864.98   -1267491.4    4295846.1 
    6800          1.7    10531.627    672639.29   -1873157.1    605649.74   -1267507.3    4281045.3 
    6900        1.725     10390.98    676337.31   -1865076.2    597561.45   -1267514.7    4266244.4 
    7000         1.75    10257.971    680326.96   -1857419.5    589912.43   -1267507.1    4251443.5 
    7100        1.775    10153.214    682627.08     -1851356    583888.08   -1267467.9    4236642.6 
    7200          1.8    10068.483    685592.89   -1846434.3    579015.37   -1267418.9    4221841.8 
    7300        1.825    10000.374    687999.28   -1842507.1    575098.59   -1267408.6    4207040.9 
    7400         1.85    9933.3108    689208.99   -1838681.1    571241.95   -1267439.2      4192240 
    7500        1.875    9871.2999    690586.14   -1835148.1    567675.84   -1267472.3    4177439.1 
    7600          1.9    9807.5953    693377.34     -1831486    564012.34   -1267473.7    4162638.3 
    7700        1.925    9755.4765    706372.54   -1828475.6     561015.1   -1267460.5    4147837.4 
    7800         1.95    9698.1252    720076.29   -1825169.6    557716.96   -1267452.6    4133036.5 
    7900        1.975    9639.1957    736934.28   -1821793.7    554328.06   -1267465.6    4118235.6 
    8000            2    9576.7353    756447.83   -1818222.8    550736.11   -1267486.7    4103434.7 
    8100        2.025     9514.674    775322.22   -1814659.9    547167.11   -1267492.7    4088633.9 
    8200         2.05    9449.9011    801411.59   -1810944.5    543442.17   -1267502.3      4073833 
    8300        2.075    9385.0125    825861.85   -1807222.9    539710.57   -1267512.3    4059032.1 
    8400          2.1    9310.7441    855550.22   -1802956.1    535439.56   -1267516.5    4044231.2 
    8500        2.125    9225.3098    884993.19     -1798041    530526.44   -1267514.6    4029430.4 
    8600         2.15    9116.9215    916196.68   -1791824.1    524293.27   -1267530.8    4014629.5 
    8700        2.175    8997.6992    943408.33   -1785013.6    517437.07   -1267576.6    3999828.6 
    8800          2.2    8870.6774    969070.56     -1777750    510132.34   -1267617.6    3985027.7 
    8900        2.225    8741.0375    988355.23   -1770311.8    502677.04   -1267634.7    3970226.8 
    9000         2.25    8614.8186    1004132.2   -1763068.6    495418.48   -1267650.1      3955426 
    9100        2.275    8482.0722    1010356.4   -1755453.2    487784.54   -1267668.7    3940625.1 
    9200          2.3    8369.6508      1019401   -1748998.8    481319.44   -1267679.3    3925824.2 
    9300        2.325    8241.2241    1020054.1   -1741624.4    473933.92   -1267690.5    3911023.3 
    9400         2.35    8110.8942    1022508.1   -1734156.5    466438.94   -1267717.6    3896222.5 
    9500        2.375     7993.328    1023923.3   -1727428.3    459677.98   -1267750.3    3881421.6 
    9600          2.4    7866.4748    1028660.5   -1720145.5    452382.95   -1267762.6    3866620.7 
    9700        2.425    7740.1012    1033958.2   -1712867.6    445115.49   -1267752.1    3851819.8 
    9800         2.45    7620.4258    1035292.3   -1705979.9    438233.23   -1267746.7    3837018.9 
    9900        2.475    7478.8514    1044486.5   -1697855.3    430091.61   -1267763.7    3822218.1 
   10000          2.5      7332.76      1049855   -1689469.9    421690.23   -1267779.6    3807417.2 
   10100        2.525    7182.9888    1058783.2   -1680847.8    413077.23   -1267770.6    3792616.3 
   10200         2.55    7026.8553    1073475.4   -1671850.6    404098.35   -1267752.2    3777815.4 
   10300        2.575    6871.8335    1088666.8   -1662929.5     395183.4   -1267746.1    3763014.6 
   10400          2.6      6718.27    1101937.9   -1654093.1    386352.32   -1267740.7    3748213.7 
   10500        2.625    6559.6686      1120465   -1644949.5    377231.51     -1267718    3733412.8 
   10600         2.65    6406.5875    1141076.5   -1636109.5    368428.17   -1267681.3    3718611.9 
   10700        2.675    6255.3906    1161853.5   -1627406.9    359733.18   -1267673.7      3703811 
   10800          2.7    6128.6757    1181823.2   -1620161.9     352446.1   -1267715.8    3689010.2 
   10900        2.725    6051.7868      1193930   -1615787.4     348024.4     -1267763    3674209.3 
   11000         2.75    5951.5194    1206316.3   -1610037.6    342258.25   -1267779.3    3659408.4 
   11100        2.775     5856.826    1220336.9   -1604592.2    336812.65   -1267779.5    3644607.5 
   11200          2.8    5810.8124    1232592.8   -1601957.5    334166.51     -1267791    3629806.7 
   11300        2.825    5742.0173    1252844.4   -1598017.7    330210.26   -1267807.4    3615005.8 
   11400         2.85    5724.3931    1258780.8     -1597017    329196.73   -1267820.3    3600204.9 
   11500        2.875    5719.8603    1269286.2   -1596762.9    328936.06   -1267826.8      3585404 
   11600          2.9    5694.0749    1277875.8   -1595267.3    327453.21   -1267814.1    3570603.2 
   11700        2.925    5720.6309    1283784.2   -1596761.9    328980.38   -1267781.6    3555802.3 
   11800         2.95    5704.7473    1291460.9   -1595820.2    328066.95   -1267753.2    3541001.4 
   11900        2.975    5724.9093    1299559.1   -1596990.2    329226.42   -1267763.8    3526200.5 
   12000            3    5707.2227    1301646.5   -1596021.5     328209.3   -1267812.2    3511399.6 
   12100        3.025    5711.0034    1305375.6   -1596279.6    328426.73   -1267852.9    3496598.8 
   12200         3.05    5664.5924    1315603.5   -1593618.3    325757.73   -1267860.6    3481797.9 
   12300        3.075     5594.892      1320622   -1589601.2    321749.42   -1267851.8      3466997 
   12400          3.1    5513.5748      1329412   -1584904.2    317073.06   -1267831.1    3452196.1 
   12500        3.125     5390.599    1331835.5   -1577804.1       310001   -1267803.1    3437395.3 
   12600         3.15    5280.0535    1340976.2   -1571425.8    303643.78     -1267782    3422594.4 
   12700        3.175    5157.8921    1351365.2   -1564390.6    296618.56   -1267772.1    3407793.5 
   12800          3.2    5041.1275    1362636.8   -1557674.4    289903.69   -1267770.7    3392992.6 
   12900        3.225     4921.048    1375807.7   -1550763.1     282998.2   -1267764.9    3378191.7 
   13000         3.25     4788.941    1393255.8   -1543127.5    275401.03   -1267726.5    3363390.9 
   13100        3.275    4662.4417    1410292.2   -1535811.3    268126.34     -1267685      3348590 
   13200          3.3    4523.9109    1429769.8   -1527844.3    260159.75   -1267684.5    3333789.1 
   13300        3.325    4386.8882    1444253.1   -1519991.3    252279.89   -1267711.4    3318988.2 
   13400         3.35    4241.8435      1463239   -1511656.9     243938.7   -1267718.2    3304187.4 
   13500        3.375     4096.773    1486164.7   -1503274.1    235596.03     -1267678    3289386.5 
   13600          3.4    3951.8788    1499535.3   -1494838.3     227263.5   -1267574.8    3274585.6 
   13700        3.425    3808.1494    1516018.1   -1486401.6    218997.95   -1267403.6    3259784.7 
   13800         3.45    3690.7599      1543202   -1473931.7    212247.14   -1261684.6    3244983.8 
   13900        3.475    3983.0725      1578608   -1441994.5    229057.38   -1212937.2      3230183 
   14000          3.5    4458.3258    1623251.8   -1424781.9     256388.1   -1168393.8    3215382.1 
   14100        3.525    4639.0508    1668756.7     -1390281    266781.19   -1123499.9    3200581.2 
   14200         3.55    4676.2757    1715249.1   -1361647.5     268921.9   -1092725.6    3185780.3 
   14300        3.575    5004.0275    1770006.6   -1326353.5    287770.16   -1038583.3    3170979.5 
   14400          3.6    5337.7713    1819908.5   -1298498.2       306963   -991535.24    3156178.6 
   14500        3.625     5483.067    1869021.4   -1263958.4    315318.62   -948639.78    3141377.7 
   14600         3.65    5855.2832    1925669.8   -1235929.2    336723.93   -899205.28    3126576.8 
   14700        3.675    6405.4428    1978799.8   -1210857.4    368362.34   -842495.01    3111775.9 
   14800          3.7    6865.6988    2015769.6   -1186906.8    394830.61   -792076.22    3096975.1 
   14900        3.725    7273.1006    2058559.6   -1162090.4    418259.36      -743831    3082174.2 
   15000         3.75    7685.4685    2110591.1   -1133304.6    441973.69   -691330.91    3067373.3 
   15100        3.775    7952.8956    2174207.6     -1099874    457352.81   -642521.21    3052572.4 
   15200          3.8    8112.0537    2226899.3   -1067500.6    466505.62   -600994.99    3037771.6 
   15300        3.825    8222.2342    2277890.4     -1036021    472841.86   -563179.12    3022970.7 
   15400         3.85    8335.4179    2325623.4   -1007548.9    479350.79   -528198.15    3008169.8 
   15500        3.875     8417.408    2370678.7   -980303.67    484065.85   -496237.82    2993368.9 
   15600          3.9    8629.5062    2416025.7   -957036.45    496263.13   -460773.32    2978568.1 
   15700        3.925     8952.812    2470227.2   -934301.19    514855.71   -419445.48    2963767.2 
   15800         3.95    9346.8981    2520318.3   -910839.18     537518.7   -373320.48    2948966.3 
   15900        3.975    9894.9717      2584233   -889001.06    569037.15   -319963.91    2934165.4 
   16000            4    10575.224    2647303.5   -870506.78    608156.93   -262349.85    2919364.5 
   16100        4.025    11257.293    2711426.5   -852317.67    647381.13   -204936.54    2904563.7 
   16200         4.05    11873.327    2774987.8   -833864.66    682807.85   -151056.81    2889762.8 
   16300        4.075    12475.361    2827122.4   -815121.35    717429.45     -97691.9    2874961.9 
   16400          4.1    13141.074    2886525.9    -796321.4    755713.08   -40608.324      2860161 
   16500        4.125    13751.299    2948586.4   -775644.55    790805.73    15161.172    2845360.2 
   16600         4.15    14312.302    3008222.7   -755085.42    823067.68    67982.259    2830559.3 
   16700        4.175    14851.971    3061218.5   -735206.37    854102.86    118896.49    2815758.4 
   16800          4.2    15321.902    3123410.9   -712522.47    881127.51    168605.04    2800957.5 
   16900        4.225    15666.549    3192431.4   -686652.06    900947.33    214295.27    2786156.6 
   17000         4.25    15808.192    3302502.5   -652576.37    909092.92    256516.55    2771355.8 
   17100        4.275    15934.792    3431656.4   -617628.92    916373.39    298744.47    2756554.9 
   17200          4.3    16059.705    3540139.3   -582784.23    923556.87    340772.64      2741754 
   17300        4.325    16186.646    3639334.9   -548090.37    930856.95    382766.58    2726953.1 
   17400         4.35    16293.484    3746422.2   -513126.13    937000.97    423874.84    2712152.3 
   17500        4.375     16336.25    3849205.8   -475881.15    939460.34    463579.19    2697351.4 
   17600          4.4    16388.377    3950043.2   -440416.93    942458.01    502041.08    2682550.5 
   17700        4.425    16457.559    4043517.8   -406394.52    946436.49    540041.97    2667749.6 
   17800         4.45    16564.167    4125097.1   -374573.76    952567.31    577993.55    2652948.7 
   17900        4.475    16760.113    4208267.3   -347909.83    963835.72    615925.89    2638147.9 
   18000          4.5    16963.945    4280986.2   -321410.24    975557.64     654147.4      2623347 
   18100        4.525    17244.492      4343114   -299837.14    991691.22    691854.08    2608546.1 
   18200         4.55    17563.504    4400445.4    -280144.6    1010036.9    729892.28    2593745.2 
   18300        4.575    17918.851    4454758.2   -262773.92    1030472.1    767698.15    2578944.4 
   18400          4.6    18289.636    4505831.5   -246763.43    1051795.1    805031.65    2564143.5 
   18500        4.625    18662.756      4565118   -231086.26    1073252.4    842166.09    2549342.6 
   18600         4.65    18997.304    4618923.8   -214175.44    1092491.4       878316    2534541.7 
   18700        4.675    19334.484    4693277.2   -197509.53    1111881.9    914372.33    2519740.9 
   18800          4.7    19659.016    4746826.6   -180432.48      1130545    950112.51      2504940 
   18900        4.725     19999.65    4821283.1   -161398.71      1150134    988735.34    2490139.1 
   19000         4.75    20411.895    4894854.9    -140314.3    1173841.3      1033527    2475338.2 
   19100        4.775    20969.313    4986877.2   -117282.36    1205897.2    1088614.8    2460537.3 
   19200          4.8    21603.672    5079146.2   -90376.641    1242377.7      1152001    2445736.5 
   19300        4.825    22180.611    5175995.3   -59071.765    1275556.1    1216484.4    2430935.6 
   19400         4.85    22443.395      5288859    -13258.74    1290668.2    1277409.5    2416134.7 
   19500        4.875    22482.293    5423511.3    44192.414    1292905.2    1337097.6    2401333.8 
   19600          4.9    22399.648    5552543.7     111827.6    1288152.5    1399980.1      2386533 
   19700        4.925    22267.154    5695828.3    182426.05      1280533    1462959.1    2371732.1 
   19800         4.95    22149.552    5835012.2    251255.96      1273770      1525026    2356931.2 
   19900        4.975    22070.058    5982249.3    315196.12    1269198.5    1584394.6    2342130.3 
   20000            5    22023.136    6137675.8    376384.75    1266500.1    1642884.8    2327329.4 
   20100        5.025    21932.141      6357617    438001.93    1261267.2    1699269.1    2312528.6 
   20200         5.05    21804.511    6644857.6    499712.64    1253927.5    1753640.1    2297727.7 
   20300        5.075    21731.873    6884303.1    557082.74    1249750.2      1806833    2282926.8 
   20400          5.1    21753.668    7132812.8    609578.69    1251003.6    1860582.3    2268125.9 
   20500        5.125     21742.09    7372823.1    662744.35    1250337.8    1913082.1    2253325.1 
   20600         5.15    21751.511      7569513    715464.23    1250879.6    1966343.8    2238524.2 
   20700        5.175    21760.779    7713599.6    766555.78    1251412.6    2017968.3    2223723.3 
   20800          5.2    21738.649    7824004.8    818851.77    1250139.9    2068991.7    2208922.4 
   20900        5.225    21543.215      7917468    878740.69      1238901    2117641.7    2194121.5 
   21000         5.25     21176.47    8055012.7     948227.2    1217810.3    2166037.5    2179320.7 
   21100        5.275    20561.384      8242002    1030068.6    1182438.1    2212506.7    2164519.8 
   21200          5.3    19894.776    8472737.8    1113307.8      1144103    2257410.8    2149718.9 
   21300        5.325    19243.821    8738522.2    1194820.7      1106668    2301488.7      2134918 
   21400         5.35    18534.214    9026249.6    1278075.3    1065860.2    2343935.5    2120117.2 
   21500        5.375    17815.152    9277993.7    1360773.7    1024508.6    2385282.2    2105316.3 
   21600          5.4    17051.204    9496583.2    1444366.5     980575.7    2424942.2    2090515.4 
   21700        5.425    16373.669      9681184    1522137.6    941612.18    2463749.8    2075714.5 
   21800         5.45    15816.017    9804301.3    1591979.4     909542.9    2501522.3    2060913.6 
   21900        5.475    15431.009      9927658    1651989.9    887401.99    2539391.9    2046112.8 
   22000          5.5    15102.047     10043054      1707855    868484.11    2576339.2    2031311.9 
   22100        5.525    14769.961     10191624    1764572.3    849386.62    2613958.9      2016511 
   22200         5.55    14392.267     10362306    1823945.2    827666.32    2651611.5    2001710.1 
   22300        5.575    14030.398     10531293      1884225    806856.06      2691081    1986909.3 
   22400          5.6    13710.981     10711771    1950699.3    788487.12    2739186.4    1972108.4 
   22500        5.625    13559.033     10938964    2039668.7    779748.95    2819417.6    1957307.5 
   22600         5.65    14114.331     11241517    2163954.4    811682.86    2975637.2    1942506.6 
   22700        5.675    15081.907     11564882    2293815.9     867325.9    3161141.8    1927705.8 
   22800          5.7    15616.285     11907941    2425463.1    898056.79    3323519.9    1912904.9 
   22900        5.725    16674.303     12236182    2549851.3    958900.97    3508752.3      1898104 
   23000         5.75    17701.075     12607603    2674453.9    1017948.3    3692402.2    1883303.1 
   23100        5.775    18334.347     12991838    2798787.3    1054366.3    3853153.6    1868502.2 
   23200          5.8     19005.83     13337355    2924214.9    1092981.7    4017196.7    1853701.4 
   23300        5.825    19760.534     13721931    3039768.8      1136383    4176151.8    1838900.5 
   23400         5.85    20832.852     14095283    3152581.6    1198049.6    4350631.2    1824099.6 
   23500        5.875    21971.468     14498867      3277136    1263528.8    4540664.8    1809298.7 
   23600          5.9    22925.792     14878769    3405099.9    1318409.8    4723509.7    1794497.9 
